 Entering Gaussian System, Link 0=g16
 Input=td_MCULE-8764884874_08.com
 Output=td_MCULE-8764884874_08.log
 Initial command:
 /opt/apps/pkg/applications/licensed/gaussian/v16/x86_64AVX2/g16/l1.exe "/tmp/Gau-2074949.inp" -scrdir="/tmp/"
 Entering Link 1 = /opt/apps/pkg/applications/licensed/gaussian/v16/x86_64AVX2/g16/l1.exe PID=   2074950.
  
 Copyright (c) 1988,1990,1992,1993,1995,1998,2003,2009,2016,
            Gaussian, Inc.  All Rights Reserved.
  
 This is part of the Gaussian(R) 16 program.  It is based on
 the Gaussian(R) 09 system (copyright 2009, Gaussian, Inc.),
 the Gaussian(R) 03 system (copyright 2003, Gaussian, Inc.),
 the Gaussian(R) 98 system (copyright 1998, Gaussian, Inc.),
 the Gaussian(R) 94 system (copyright 1995, Gaussian, Inc.),
 the Gaussian 92(TM) system (copyright 1992, Gaussian, Inc.),
 the Gaussian 90(TM) system (copyright 1990, Gaussian, Inc.),
 the Gaussian 88(TM) system (copyright 1988, Gaussian, Inc.),
 the Gaussian 86(TM) system (copyright 1986, Carnegie Mellon
 University), and the Gaussian 82(TM) system (copyright 1983,
 Carnegie Mellon University). Gaussian is a federally registered
 trademark of Gaussian, Inc.
  
 This software contains proprietary and confidential information,
 including trade secrets, belonging to Gaussian, Inc.
  
 This software is provided under written license and may be
 used, copied, transmitted, or stored only in accord with that
 written license.
  
 The following legend is applicable only to US Government
 contracts under FAR:
  
                    RESTRICTED RIGHTS LEGEND
  
 Use, reproduction and disclosure by the US Government is
 subject to restrictions as set forth in subparagraphs (a)
 and (c) of the Commercial Computer Software - Restricted
 Rights clause in FAR 52.227-19.
  
 Gaussian, Inc.
 340 Quinnipiac St., Bldg. 40, Wallingford CT 06492
  
  
 ---------------------------------------------------------------
 Warning -- This program may not be used in any manner that
 competes with the business of Gaussian, Inc. or will provide
 assistance to any competitor of Gaussian, Inc.  The licensee
 of this program is prohibited from giving any competitor of
 Gaussian, Inc. access to this program.  By using this program,
 the user acknowledges that Gaussian, Inc. is engaged in the
 business of creating and licensing software in the field of
 computational chemistry and represents and warrants to the
 licensee that it is not a competitor of Gaussian, Inc. and that
 it will not use this program in any manner prohibited above.
 ---------------------------------------------------------------
  

 Cite this work as:
 Gaussian 16, Revision A.03,
 M. J. Frisch, G. W. Trucks, H. B. Schlegel, G. E. Scuseria, 
 M. A. Robb, J. R. Cheeseman, G. Scalmani, V. Barone, 
 G. A. Petersson, H. Nakatsuji, X. Li, M. Caricato, A. V. Marenich, 
 J. Bloino, B. G. Janesko, R. Gomperts, B. Mennucci, H. P. Hratchian, 
 J. V. Ortiz, A. F. Izmaylov, J. L. Sonnenberg, D. Williams-Young, 
 F. Ding, F. Lipparini, F. Egidi, J. Goings, B. Peng, A. Petrone, 
 T. Henderson, D. Ranasinghe, V. G. Zakrzewski, J. Gao, N. Rega, 
 G. Zheng, W. Liang, M. Hada, M. Ehara, K. Toyota, R. Fukuda, 
 J. Hasegawa, M. Ishida, T. Nakajima, Y. Honda, O. Kitao, H. Nakai, 
 T. Vreven, K. Throssell, J. A. Montgomery, Jr., J. E. Peralta, 
 F. Ogliaro, M. J. Bearpark, J. J. Heyd, E. N. Brothers, K. N. Kudin, 
 V. N. Staroverov, T. A. Keith, R. Kobayashi, J. Normand, 
 K. Raghavachari, A. P. Rendell, J. C. Burant, S. S. Iyengar, 
 J. Tomasi, M. Cossi, J. M. Millam, M. Klene, C. Adamo, R. Cammi, 
 J. W. Ochterski, R. L. Martin, K. Morokuma, O. Farkas, 
 J. B. Foresman, and D. J. Fox, Gaussian, Inc., Wallingford CT, 2016.
 
 ******************************************
 Gaussian 16:  ES64L-G16RevA.03 25-Dec-2016
                11-Aug-2025 
 ******************************************
 %nproc=4
 Will use up to    4 processors via shared memory.
 %oldchk=MCULE-8764884874_08_opt.chk
 %chk=MCULE-8764884874_08_td.chk
 Copying data from "MCULE-8764884874_08_opt.chk" to current chk file "MCULE-8764884874_08_td.chk"
 IOpt=  2 FromEx=T IUOpen= 4 IOptOp= 5 NList=   0 IFRang= 0 IUIn= 4 IUOut= 2.
 ----------------------------------------------------------------------
 #p td=(nstates=3,50-50) m062x 3-21g* guess=read geom=check integral=ul
 trafine nosymm
 ----------------------------------------------------------------------
 1/29=2,38=1,172=1/1;
 2/12=2,15=1,40=1/2;
 3/5=5,7=1,11=9,14=-4,25=1,30=1,74=-55,75=-5,116=-2/1,2,3,8;
 4/5=1/1;
 5/5=2,38=6/2;
 8/6=1,10=1,108=3/1;
 9/41=3,42=1,48=2,70=2/14;
 6/7=2,8=2,9=2,10=2/1;
 99/5=1,9=1/99;
 Leave Link    1 at Mon Aug 11 17:12:10 2025, MaxMem=  2147483648 cpu:               0.2 elap:               0.1
 (Enter /opt/apps/pkg/applications/licensed/gaussian/v16/x86_64AVX2/g16/l101.exe)
 -----
 title
 -----
 Structure from the checkpoint file:  "MCULE-8764884874_08_td.chk"
 Charge =  0 Multiplicity = 1
 Redundant internal coordinates found in file.  (old form).
 C,0,1.4965006249,0.3923986676,-0.9809898104
 C,0,2.5099656443,-0.0362358408,-0.2378856837
 C,0,3.1971405315,-1.3097263232,-0.4890482773
 N,0,2.7777157351,-2.0765066151,-1.50554618
 C,0,3.4529177795,-3.240951758,-1.6751713814
 N,0,4.4846040508,-3.6475465824,-0.9007248526
 C,0,4.8207841692,-2.8000386372,0.0850177195
 N,0,4.2085540872,-1.6151710761,0.3389678937
 N,0,5.8424682552,-3.1429778514,0.8913114838
 N,0,3.0697427594,-4.0431421001,-2.6782510567
 C,0,1.9440313425,-3.7294912348,-3.5807391009
 C,0,1.7213758137,-5.0682863232,-4.3166459145
 C,0,3.1376980211,-5.6906196833,-4.3613320493
 C,0,3.7277713164,-5.3288150774,-2.9815365946
 H,0,1.0010317315,1.3318024262,-0.7859396007
 H,0,1.1460893367,-0.2046791943,-1.8097901655
 H,0,2.8990656491,0.5216121535,0.5997647473
 H,0,6.323042846,-4.0140166257,0.7400117548
 H,0,6.1059463509,-2.5203611582,1.6368558473
 H,0,2.2229834653,-2.9342492382,-4.2749458957
 H,0,1.0803066159,-3.3996612039,-3.0089067071
 H,0,1.2903886379,-4.9266402166,-5.3059253483
 H,0,1.0595294352,-5.7053706265,-3.7284122819
 H,0,3.7231762982,-5.212793594,-5.1480442575
 H,0,3.1223347575,-6.7651642232,-4.5332236577
 H,0,4.8083791098,-5.2087064311,-2.9886200185
 H,0,3.4684756351,-6.0764216325,-2.2285806121
 Recover connectivity data from disk.
 ITRead=  0  0  0  0  0  0  0  0  0  0  0  0  0  0  0  0  0  0  0  0
 ITRead=  0  0  0  0  0  0  0
 MicOpt= -1 -1 -1 -1 -1 -1 -1 -1 -1 -1 -1 -1 -1 -1 -1 -1 -1 -1 -1 -1
 MicOpt= -1 -1 -1 -1 -1 -1 -1
                           ----------------------------
                           !    Current Parameters    !
                           ! (Angstroms and Degrees)  !
 --------------------------                            --------------------------
 ! Name  Definition              Value                                          !
 --------------------------------------------------------------------------------
 ! R1    R(1,2)                  1.3278                                         !
 ! R2    R(1,15)                 1.0798                                         !
 ! R3    R(1,16)                 1.0799                                         !
 ! R4    R(2,3)                  1.4687                                         !
 ! R5    R(2,17)                 1.079                                          !
 ! R6    R(3,4)                  1.3406                                         !
 ! R7    R(3,8)                  1.3423                                         !
 ! R8    R(4,5)                  1.3567                                         !
 ! R9    R(5,6)                  1.3526                                         !
 ! R10   R(5,10)                 1.3403                                         !
 ! R11   R(6,7)                  1.3427                                         !
 ! R12   R(7,8)                  1.3577                                         !
 ! R13   R(7,9)                  1.3459                                         !
 ! R14   R(9,18)                 1.0063                                         !
 ! R15   R(9,19)                 1.0064                                         !
 ! R16   R(10,11)                1.4765                                         !
 ! R17   R(10,14)                1.4758                                         !
 ! R18   R(11,12)                1.5439                                         !
 ! R19   R(11,20)                1.0919                                         !
 ! R20   R(11,21)                1.0871                                         !
 ! R21   R(12,13)                1.5477                                         !
 ! R22   R(12,22)                1.0883                                         !
 ! R23   R(12,23)                1.0908                                         !
 ! R24   R(13,14)                1.5437                                         !
 ! R25   R(13,24)                1.0909                                         !
 ! R26   R(13,25)                1.0883                                         !
 ! R27   R(14,26)                1.0873                                         !
 ! R28   R(14,27)                1.0923                                         !
 ! A1    A(2,1,15)             122.0033                                         !
 ! A2    A(2,1,16)             119.9141                                         !
 ! A3    A(15,1,16)            118.0826                                         !
 ! A4    A(1,2,3)              122.7737                                         !
 ! A5    A(1,2,17)             122.8754                                         !
 ! A6    A(3,2,17)             114.3508                                         !
 ! A7    A(2,3,4)              118.6358                                         !
 ! A8    A(2,3,8)              116.3819                                         !
 ! A9    A(4,3,8)              124.9817                                         !
 ! A10   A(3,4,5)              115.469                                          !
 ! A11   A(4,5,6)              124.4742                                         !
 ! A12   A(4,5,10)             117.7091                                         !
 ! A13   A(6,5,10)             117.8166                                         !
 ! A14   A(5,6,7)              114.9338                                         !
 ! A15   A(6,7,8)              125.1179                                         !
 ! A16   A(6,7,9)              117.9701                                         !
 ! A17   A(8,7,9)              116.912                                          !
 ! A18   A(3,8,7)              115.023                                          !
 ! A19   A(7,9,18)             119.5388                                         !
 ! A20   A(7,9,19)             119.0037                                         !
 ! A21   A(18,9,19)            121.4571                                         !
 ! A22   A(5,10,11)            123.2472                                         !
 ! A23   A(5,10,14)            123.2114                                         !
 ! A24   A(11,10,14)           113.5405                                         !
 ! A25   A(10,11,12)           102.5386                                         !
 ! A26   A(10,11,20)           110.3991                                         !
 ! A27   A(10,11,21)           110.4069                                         !
 ! A28   A(12,11,20)           111.4307                                         !
 ! A29   A(12,11,21)           113.5313                                         !
 ! A30   A(20,11,21)           108.4483                                         !
 ! A31   A(11,12,13)           103.3255                                         !
 ! A32   A(11,12,22)           112.1808                                         !
 ! A33   A(11,12,23)           109.6891                                         !
 ! A34   A(13,12,22)           112.8603                                         !
 ! A35   A(13,12,23)           109.6312                                         !
 ! A36   A(22,12,23)           109.0206                                         !
 ! A37   A(12,13,14)           103.2829                                         !
 ! A38   A(12,13,24)           109.624                                          !
 ! A39   A(12,13,25)           112.8715                                         !
 ! A40   A(14,13,24)           109.6816                                         !
 ! A41   A(14,13,25)           112.2089                                         !
 ! A42   A(24,13,25)           109.0352                                         !
 ! A43   A(10,14,13)           102.5585                                         !
 ! A44   A(10,14,26)           110.3802                                         !
 ! A45   A(10,14,27)           110.4114                                         !
 ! A46   A(13,14,26)           113.5765                                         !
 ! A47   A(13,14,27)           111.4074                                         !
 ! A48   A(26,14,27)           108.4229                                         !
 ! D1    D(15,1,2,3)          -179.9118                                         !
 ! D2    D(15,1,2,17)           -0.0117                                         !
 ! D3    D(16,1,2,3)             0.0241                                         !
 ! D4    D(16,1,2,17)          179.9242                                         !
 ! D5    D(1,2,3,4)             -0.4834                                         !
 ! D6    D(1,2,3,8)            179.7815                                         !
 ! D7    D(17,2,3,4)           179.6087                                         !
 ! D8    D(17,2,3,8)            -0.1265                                         !
 ! D9    D(2,3,4,5)           -179.6738                                         !
 ! D10   D(8,3,4,5)              0.0366                                         !
 ! D11   D(2,3,8,7)            179.7671                                         !
 ! D12   D(4,3,8,7)              0.0508                                         !
 ! D13   D(3,4,5,6)              0.0065                                         !
 ! D14   D(3,4,5,10)           179.9373                                         !
 ! D15   D(4,5,6,7)             -0.1319                                         !
 ! D16   D(10,5,6,7)           179.9373                                         !
 ! D17   D(4,5,10,11)           -1.0772                                         !
 ! D18   D(4,5,10,14)          179.2988                                         !
 ! D19   D(6,5,10,11)          178.8584                                         !
 ! D20   D(6,5,10,14)           -0.7657                                         !
 ! D21   D(5,6,7,8)              0.2342                                         !
 ! D22   D(5,6,7,9)           -179.8422                                         !
 ! D23   D(6,7,8,3)             -0.1973                                         !
 ! D24   D(9,7,8,3)            179.8784                                         !
 ! D25   D(6,7,9,18)            -0.075                                          !
 ! D26   D(6,7,9,19)          -179.8322                                         !
 ! D27   D(8,7,9,18)           179.8549                                         !
 ! D28   D(8,7,9,19)             0.0976                                         !
 ! D29   D(5,10,11,12)        -167.8019                                         !
 ! D30   D(5,10,11,20)          73.3785                                         !
 ! D31   D(5,10,11,21)         -46.5277                                         !
 ! D32   D(14,10,11,12)         11.855                                          !
 ! D33   D(14,10,11,20)       -106.9646                                         !
 ! D34   D(14,10,11,21)        133.1292                                         !
 ! D35   D(5,10,14,13)        -168.2027                                         !
 ! D36   D(5,10,14,26)         -46.8771                                         !
 ! D37   D(5,10,14,27)          72.9882                                         !
 ! D38   D(11,10,14,13)         12.1403                                         !
 ! D39   D(11,10,14,26)        133.4658                                         !
 ! D40   D(11,10,14,27)       -106.6688                                         !
 ! D41   D(10,11,12,13)        -30.8448                                         !
 ! D42   D(10,11,12,22)       -152.6955                                         !
 ! D43   D(10,11,12,23)         85.9924                                         !
 ! D44   D(20,11,12,13)         87.2474                                         !
 ! D45   D(20,11,12,22)        -34.6033                                         !
 ! D46   D(20,11,12,23)       -155.9154                                         !
 ! D47   D(21,11,12,13)       -149.9523                                         !
 ! D48   D(21,11,12,22)         88.1969                                         !
 ! D49   D(21,11,12,23)        -33.1151                                         !
 ! D50   D(11,12,13,14)         38.8649                                         !
 ! D51   D(11,12,13,24)        -77.9791                                         !
 ! D52   D(11,12,13,25)        160.2709                                         !
 ! D53   D(22,12,13,14)        160.2581                                         !
 ! D54   D(22,12,13,24)         43.414                                          !
 ! D55   D(22,12,13,25)        -78.336                                          !
 ! D56   D(23,12,13,14)        -78.0131                                         !
 ! D57   D(23,12,13,24)        165.1428                                         !
 ! D58   D(23,12,13,25)         43.3928                                         !
 ! D59   D(12,13,14,10)        -31.0034                                         !
 ! D60   D(12,13,14,26)       -150.1139                                         !
 ! D61   D(12,13,14,27)         87.1036                                         !
 ! D62   D(24,13,14,10)         85.7999                                         !
 ! D63   D(24,13,14,26)        -33.3105                                         !
 ! D64   D(24,13,14,27)       -156.093                                          !
 ! D65   D(25,13,14,10)       -152.8558                                         !
 ! D66   D(25,13,14,26)         88.0337                                         !
 ! D67   D(25,13,14,27)        -34.7488                                         !
 --------------------------------------------------------------------------------
 NAtoms=     27 NQM=       27 NQMF=       0 NMMI=      0 NMMIF=      0
                NMic=       0 NMicF=      0.
                    Isotopes and Nuclear Properties:
 (Nuclear quadrupole moments (NQMom) in fm**2, nuclear magnetic moments (NMagM)
  in nuclear magnetons)

  Atom         1           2           3           4           5           6           7           8           9          10
 IAtWgt=          12          12          12          14          12          14          12          14          14          14
 AtmWgt=  12.0000000  12.0000000  12.0000000  14.0030740  12.0000000  14.0030740  12.0000000  14.0030740  14.0030740  14.0030740
 NucSpn=           0           0           0           2           0           2           0           2           2           2
 AtZEff=   3.6000000   3.6000000   3.6000000   4.5500000   3.6000000   4.5500000   3.6000000   4.5500000   4.5500000   4.5500000
 NQMom=    0.0000000   0.0000000   0.0000000   2.0440000   0.0000000   2.0440000   0.0000000   2.0440000   2.0440000   2.0440000
 NMagM=    0.0000000   0.0000000   0.0000000   0.4037610   0.0000000   0.4037610   0.0000000   0.4037610   0.4037610   0.4037610
 AtZNuc=   6.0000000   6.0000000   6.0000000   7.0000000   6.0000000   7.0000000   6.0000000   7.0000000   7.0000000   7.0000000

  Atom        11          12          13          14          15          16          17          18          19          20
 IAtWgt=          12          12          12          12           1           1           1           1           1           1
 AtmWgt=  12.0000000  12.0000000  12.0000000  12.0000000   1.0078250   1.0078250   1.0078250   1.0078250   1.0078250   1.0078250
 NucSpn=           0           0           0           0           1           1           1           1           1           1
 AtZEff=   3.6000000   3.6000000   3.6000000   3.6000000   1.0000000   1.0000000   1.0000000   1.0000000   1.0000000   1.0000000
 NQMom=    0.0000000   0.0000000   0.0000000   0.0000000   0.0000000   0.0000000   0.0000000   0.0000000   0.0000000   0.0000000
 NMagM=    0.0000000   0.0000000   0.0000000   0.0000000   2.7928460   2.7928460   2.7928460   2.7928460   2.7928460   2.7928460
 AtZNuc=   6.0000000   6.0000000   6.0000000   6.0000000   1.0000000   1.0000000   1.0000000   1.0000000   1.0000000   1.0000000

  Atom        21          22          23          24          25          26          27
 IAtWgt=           1           1           1           1           1           1           1
 AtmWgt=   1.0078250   1.0078250   1.0078250   1.0078250   1.0078250   1.0078250   1.0078250
 NucSpn=           1           1           1           1           1           1           1
 AtZEff=   1.0000000   1.0000000   1.0000000   1.0000000   1.0000000   1.0000000   1.0000000
 NQMom=    0.0000000   0.0000000   0.0000000   0.0000000   0.0000000   0.0000000   0.0000000
 NMagM=    2.7928460   2.7928460   2.7928460   2.7928460   2.7928460   2.7928460   2.7928460
 AtZNuc=   1.0000000   1.0000000   1.0000000   1.0000000   1.0000000   1.0000000   1.0000000
 Leave Link  101 at Mon Aug 11 17:12:11 2025, MaxMem=  2147483648 cpu:               0.3 elap:               0.2
 (Enter /opt/apps/pkg/applications/licensed/gaussian/v16/x86_64AVX2/g16/l202.exe)
                          Input orientation:                          
 ---------------------------------------------------------------------
 Center     Atomic      Atomic             Coordinates (Angstroms)
 Number     Number       Type             X           Y           Z
 ---------------------------------------------------------------------
      1          6           0        1.496501    0.392399   -0.980990
      2          6           0        2.509966   -0.036236   -0.237886
      3          6           0        3.197141   -1.309726   -0.489048
      4          7           0        2.777716   -2.076507   -1.505546
      5          6           0        3.452918   -3.240952   -1.675171
      6          7           0        4.484604   -3.647547   -0.900725
      7          6           0        4.820784   -2.800039    0.085018
      8          7           0        4.208554   -1.615171    0.338968
      9          7           0        5.842468   -3.142978    0.891311
     10          7           0        3.069743   -4.043142   -2.678251
     11          6           0        1.944031   -3.729491   -3.580739
     12          6           0        1.721376   -5.068286   -4.316646
     13          6           0        3.137698   -5.690620   -4.361332
     14          6           0        3.727771   -5.328815   -2.981537
     15          1           0        1.001032    1.331802   -0.785940
     16          1           0        1.146089   -0.204679   -1.809790
     17          1           0        2.899066    0.521612    0.599765
     18          1           0        6.323043   -4.014017    0.740012
     19          1           0        6.105946   -2.520361    1.636856
     20          1           0        2.222983   -2.934249   -4.274946
     21          1           0        1.080307   -3.399661   -3.008907
     22          1           0        1.290389   -4.926640   -5.305925
     23          1           0        1.059529   -5.705371   -3.728412
     24          1           0        3.723176   -5.212794   -5.148044
     25          1           0        3.122335   -6.765164   -4.533224
     26          1           0        4.808379   -5.208706   -2.988620
     27          1           0        3.468476   -6.076422   -2.228581
 ---------------------------------------------------------------------
                    Distance matrix (angstroms):
                    1          2          3          4          5
     1  C    0.000000
     2  C    1.327796   0.000000
     3  C    2.455893   1.468697   0.000000
     4  N    2.830577   2.416890   1.340573   0.000000
     5  C    4.184578   3.636640   2.280777   1.356688   0.000000
     6  N    5.025571   4.168947   2.700452   2.397383   1.352577
     7  C    4.730633   3.617009   2.277455   2.688405   2.272384
     8  N    3.623239   2.389770   1.342336   2.379572   2.696462
     9  N    5.906931   4.693880   3.501994   4.034228   3.508046
    10  N    5.002980   4.724831   3.504340   2.308283   1.340336
    11  C    4.893767   5.013490   4.121177   2.780973   2.479233
    12  C    6.402831   6.525312   5.563736   4.238972   3.648942
    13  C    7.150060   7.026302   5.847251   4.620272   3.649068
    14  C    6.458564   6.084576   4.758901   3.695763   2.478166
    15  H    1.079821   2.109212   3.448001   3.910372   5.264272
    16  H    1.079907   2.087921   2.678115   2.501701   3.815564
    17  H    2.117232   1.079005   2.151317   3.346234   4.431588
    18  H    6.758243   5.596301   4.312197   4.622318   3.829929
    19  H    6.048494   4.755693   3.800823   4.598784   4.304339
    20  H    4.737564   4.977820   4.233329   2.951783   2.892340
    21  H    4.320345   4.586405   3.898525   2.625267   2.726412
    22  H    6.858551   7.147618   6.318233   4.977779   4.549775
    23  H    6.702392   6.813709   5.863834   4.589330   4.002183
    24  H    7.330799   7.237285   6.100565   4.898774   4.002755
    25  H    8.154288   8.006460   6.791373   5.591878   4.549486
    26  H    6.809662   6.293147   4.903672   4.016687   2.726625
    27  H    6.876831   6.431598   5.081435   4.123014   2.889013
                    6          7          8          9         10
     6  N    0.000000
     7  C    1.342749   0.000000
     8  N    2.396579   1.357655   0.000000
     9  N    2.304296   1.345940   2.304116   0.000000
    10  N    2.306063   3.499587   4.036774   4.608696   0.000000
    11  C    3.693738   4.751564   4.996250   5.961631   1.476512
    12  C    4.617624   5.841740   6.307519   6.914697   2.356555
    13  C    4.238408   5.564015   6.312593   6.434013   2.356175
    14  C    2.780151   4.122274   5.004803   4.924305   1.475784
    15  H    6.078023   5.693960   4.498696   6.802671   6.062214
    16  H    4.881129   4.881554   3.998167   6.163240   4.380464
    17  H    4.706090   3.871864   2.519646   4.709335   5.622410
    18  H    2.491219   2.039495   3.222787   1.006256   4.719039
    19  H    3.215371   2.034223   2.470623   1.006434   5.491588
    20  H    4.124208   5.076994   5.193328   6.311454   2.120396
    21  H    4.011872   4.891123   4.917174   6.160826   2.116898
    22  H    5.589712   6.785897   7.165636   7.893581   3.294138
    23  H    4.895058   6.093459   6.571885   7.126304   2.811903
    24  H    4.590152   5.866095   6.579193   6.726764   2.809793
    25  H    4.976984   6.319423   7.172207   7.067174   3.294403
    26  H    2.627043   3.905007   4.934180   4.515578   2.116064
    27  H    2.948754   4.232749   5.200267   4.896393   2.120240
                   11         12         13         14         15
    11  C    0.000000
    12  C    1.543861   0.000000
    13  C    2.424910   1.547664   0.000000
    14  C    2.469536   2.424049   1.543672   0.000000
    15  H    5.858058   7.344789   8.164753   7.524598   0.000000
    16  H    4.024583   5.501814   6.369648   5.856180   1.852050
    17  H    6.038260   7.536910   7.953694   6.909412   2.485783
    18  H    6.158375   6.917847   6.243487   4.723775   7.696110
    19  H    6.782833   7.820522   7.405356   5.905309   6.838805
    20  H    1.091855   2.192593   2.905468   3.109862   5.644956
    21  H    1.087106   2.214828   3.363094   3.275890   5.228252
    22  H    2.199246   1.088342   2.210989   3.391955   7.725419
    23  H    2.169850   1.090842   2.172462   2.796271   7.627803
    24  H    2.796782   2.172397   1.090880   2.169617   8.322846
    25  H    3.392777   2.211105   1.088315   2.199406   9.170765
    26  H    3.277678   3.363474   2.215345   1.087285   7.882002
    27  H    3.108110   2.903224   2.192461   1.092288   7.940483
                   16         17         18         19         20
    16  H    0.000000
    17  H    3.066982   0.000000
    18  H    6.914723   5.684648   0.000000
    19  H    6.468534   4.540181   1.755696   0.000000
    20  H    3.832394   6.013557   6.567053   7.085062   0.000000
    21  H    3.413227   5.630877   6.474419   6.900242   1.767816
    22  H    5.877134   8.194417   7.919207   8.785328   2.429460
    23  H    5.826338   7.803353   7.108591   8.024756   3.054740
    24  H    6.547253   8.160875   6.547181   7.678649   2.864375
    25  H    7.373100   8.915970   6.754284   8.061648   3.943533
    26  H    6.312075   7.025563   4.198117   5.505080   3.675875
    27  H    6.328208   7.201237   4.605932   5.877365   3.951216
                   21         22         23         24         25
    21  H    0.000000
    22  H    2.766242   0.000000
    23  H    2.415454   1.774335   0.000000
    24  H    3.853326   2.454642   3.058268   0.000000
    25  H    4.221378   2.708000   2.454801   1.774505   0.000000
    26  H    4.143861   4.222052   3.853290   2.416774   2.766063
    27  H    3.671145   3.941587   2.861852   3.055159   2.430136
                   26         27
    26  H    0.000000
    27  H    1.768030   0.000000
 Symmetry turned off by external request.
 Stoichiometry    C9H13N5
 Framework group  C1[X(C9H13N5)]
 Deg. of freedom    75
 Full point group                 C1      NOp   1
 Rotational constants (GHZ):           1.0654256           0.4899841           0.3398785
 Leave Link  202 at Mon Aug 11 17:12:11 2025, MaxMem=  2147483648 cpu:               0.1 elap:               0.1
 (Enter /opt/apps/pkg/applications/licensed/gaussian/v16/x86_64AVX2/g16/l301.exe)
 Standard basis: 3-21G* (6D, 7F)
 Ernie: Thresh=  0.10000D-02 Tol=  0.10000D-05 Strict=F.
   152 basis functions,   249 primitive gaussians,   152 cartesian basis functions
    51 alpha electrons       51 beta electrons
       nuclear repulsion energy       880.4023159895 Hartrees.
 IExCor= 4336 DFT=T Ex+Corr=M062X ExCW=0 ScaHFX=  0.540000
 ScaDFX=  1.000000  1.000000  1.000000  1.000000 ScalE2=  1.000000  1.000000
 IRadAn=      5 IRanWt=     -1 IRanGd=            0 ICorTp=0 IEmpDi=  4
 NAtoms=   27 NActive=   27 NUniq=   27 SFac= 1.00D+00 NAtFMM=   60 NAOKFM=F Big=F
 Integral buffers will be    131072 words long.
 Regular integral format.
 Two-electron integral symmetry is turned off.
 Leave Link  301 at Mon Aug 11 17:12:11 2025, MaxMem=  2147483648 cpu:               0.1 elap:               0.1
 (Enter /opt/apps/pkg/applications/licensed/gaussian/v16/x86_64AVX2/g16/l302.exe)
 NPDir=0 NMtPBC=     1 NCelOv=     1 NCel=       1 NClECP=     1 NCelD=      1
         NCelK=      1 NCelE2=     1 NClLst=     1 CellRange=     0.0.
 One-electron integrals computed using PRISM.
 NBasis=   152 RedAO= T EigKep=  5.58D-03  NBF=   152
 NBsUse=   152 1.00D-06 EigRej= -1.00D+00 NBFU=   152
 Precomputing XC quadrature grid using
 IXCGrd= 4 IRadAn=           5 IRanWt=          -1 IRanGd=           0 AccXCQ= 0.00D+00.
 Generated NRdTot=       0 NPtTot=           0 NUsed=           0 NTot=          32
 NSgBfM=   150   150   150   150   150 MxSgAt=    27 MxSgA2=    27.
 Leave Link  302 at Mon Aug 11 17:12:12 2025, MaxMem=  2147483648 cpu:               1.3 elap:               0.9
 (Enter /opt/apps/pkg/applications/licensed/gaussian/v16/x86_64AVX2/g16/l303.exe)
 DipDrv:  MaxL=1.
 Leave Link  303 at Mon Aug 11 17:12:12 2025, MaxMem=  2147483648 cpu:               0.2 elap:               0.2
 (Enter /opt/apps/pkg/applications/licensed/gaussian/v16/x86_64AVX2/g16/l308.exe)
 Leave Link  308 at Mon Aug 11 17:12:12 2025, MaxMem=  2147483648 cpu:               0.2 elap:               0.2
 (Enter /opt/apps/pkg/applications/licensed/gaussian/v16/x86_64AVX2/g16/l401.exe)
 Initial guess from the checkpoint file:  "MCULE-8764884874_08_td.chk"
 B after Tr=     0.000000    0.000000    0.000000
         Rot=    1.000000    0.000000    0.000000    0.000000 Ang=   0.00 deg.
 Guess basis will be translated and rotated to current coordinates.
 JPrj=2 DoOrth=T DoCkMO=T.
 Leave Link  401 at Mon Aug 11 17:12:12 2025, MaxMem=  2147483648 cpu:               0.3 elap:               0.1
 (Enter /opt/apps/pkg/applications/licensed/gaussian/v16/x86_64AVX2/g16/l502.exe)
 Keep R1 ints in memory in canonical form, NReq=71534461.
 FoFCou: FMM=F IPFlag=           0 FMFlag=           0 FMFlg1=           0
         NFxFlg=           0 DoJE=F BraDBF=F KetDBF=F FulRan=T
         wScrn=  0.000000 ICntrl=       600 IOpCl=  0 I1Cent=           0 NGrid=           0
         NMat0=    1 NMatS0=  11628 NMatT0=    0 NMatD0=    1 NMtDS0=    0 NMtDT0=    0
 Symmetry not used in FoFCou.
 Two-electron integral symmetry not used.
 Closed shell SCF:
 Using DIIS extrapolation, IDIIS=  1040.
 NGot=  2147483648 LenX=  2079823753 LenY=  2079800208
 Requested convergence on RMS density matrix=1.00D-08 within 128 cycles.
 Requested convergence on MAX density matrix=1.00D-06.
 Requested convergence on             energy=1.00D-06.
 No special actions if energy rises.

 Cycle   1  Pass 1  IDiag  1:
 E= -620.847637216601    
 DIIS: error= 7.91D-03 at cycle   1 NSaved=   1.
 NSaved= 1 IEnMin= 1 EnMin= -620.847637216601     IErMin= 1 ErrMin= 7.91D-03
 ErrMax= 7.91D-03  0.00D+00 EMaxC= 1.00D-01 BMatC= 1.22D-02 BMatP= 1.22D-02
 IDIUse=3 WtCom= 9.21D-01 WtEn= 7.91D-02
 Coeff-Com:  0.100D+01
 Coeff-En:   0.100D+01
 Coeff:      0.100D+01
 Gap=     0.268 Goal=   None    Shift=    0.000
 GapD=    0.268 DampG=1.000 DampE=1.000 DampFc=1.0000 IDamp=-1.
 RMSDP=1.06D-03 MaxDP=4.18D-02              OVMax= 8.33D-03

 Cycle   2  Pass 1  IDiag  1:
 E= -620.852315508702     Delta-E=       -0.004678292101 Rises=F Damp=F
 DIIS: error= 2.03D-03 at cycle   2 NSaved=   2.
 NSaved= 2 IEnMin= 2 EnMin= -620.852315508702     IErMin= 2 ErrMin= 2.03D-03
 ErrMax= 2.03D-03  0.00D+00 EMaxC= 1.00D-01 BMatC= 8.24D-04 BMatP= 1.22D-02
 IDIUse=3 WtCom= 9.80D-01 WtEn= 2.03D-02
 Coeff-Com:  0.106D+00 0.894D+00
 Coeff-En:   0.000D+00 0.100D+01
 Coeff:      0.104D+00 0.896D+00
 Gap=     0.272 Goal=   None    Shift=    0.000
 RMSDP=2.72D-04 MaxDP=3.87D-03 DE=-4.68D-03 OVMax= 5.49D-03

 Cycle   3  Pass 1  IDiag  1:
 E= -620.852693055047     Delta-E=       -0.000377546345 Rises=F Damp=F
 DIIS: error= 1.52D-03 at cycle   3 NSaved=   3.
 NSaved= 3 IEnMin= 3 EnMin= -620.852693055047     IErMin= 3 ErrMin= 1.52D-03
 ErrMax= 1.52D-03  0.00D+00 EMaxC= 1.00D-01 BMatC= 3.57D-04 BMatP= 8.24D-04
 IDIUse=3 WtCom= 9.85D-01 WtEn= 1.52D-02
 Coeff-Com: -0.568D-02 0.392D+00 0.614D+00
 Coeff-En:   0.000D+00 0.253D+00 0.747D+00
 Coeff:     -0.559D-02 0.390D+00 0.616D+00
 Gap=     0.269 Goal=   None    Shift=    0.000
 RMSDP=1.13D-04 MaxDP=1.92D-03 DE=-3.78D-04 OVMax= 3.43D-03

 Cycle   4  Pass 1  IDiag  1:
 E= -620.852961408860     Delta-E=       -0.000268353813 Rises=F Damp=F
 DIIS: error= 2.66D-04 at cycle   4 NSaved=   4.
 NSaved= 4 IEnMin= 4 EnMin= -620.852961408860     IErMin= 4 ErrMin= 2.66D-04
 ErrMax= 2.66D-04  0.00D+00 EMaxC= 1.00D-01 BMatC= 1.24D-05 BMatP= 3.57D-04
 IDIUse=3 WtCom= 9.97D-01 WtEn= 2.66D-03
 Coeff-Com: -0.550D-02 0.140D+00 0.273D+00 0.592D+00
 Coeff-En:   0.000D+00 0.000D+00 0.000D+00 0.100D+01
 Coeff:     -0.548D-02 0.140D+00 0.273D+00 0.593D+00
 Gap=     0.269 Goal=   None    Shift=    0.000
 RMSDP=2.25D-05 MaxDP=4.10D-04 DE=-2.68D-04 OVMax= 7.72D-04

 Cycle   5  Pass 1  IDiag  1:
 E= -620.852972341915     Delta-E=       -0.000010933054 Rises=F Damp=F
 DIIS: error= 5.79D-05 at cycle   5 NSaved=   5.
 NSaved= 5 IEnMin= 5 EnMin= -620.852972341915     IErMin= 5 ErrMin= 5.79D-05
 ErrMax= 5.79D-05  0.00D+00 EMaxC= 1.00D-01 BMatC= 2.36D-07 BMatP= 1.24D-05
 IDIUse=1 WtCom= 1.00D+00 WtEn= 0.00D+00
 Coeff-Com: -0.105D-02 0.131D-01 0.337D-01 0.129D+00 0.825D+00
 Coeff:     -0.105D-02 0.131D-01 0.337D-01 0.129D+00 0.825D+00
 Gap=     0.269 Goal=   None    Shift=    0.000
 RMSDP=6.02D-06 MaxDP=8.48D-05 DE=-1.09D-05 OVMax= 2.72D-04

 Cycle   6  Pass 1  IDiag  1:
 E= -620.852972507917     Delta-E=       -0.000000166003 Rises=F Damp=F
 DIIS: error= 3.38D-05 at cycle   6 NSaved=   6.
 NSaved= 6 IEnMin= 6 EnMin= -620.852972507917     IErMin= 6 ErrMin= 3.38D-05
 ErrMax= 3.38D-05  0.00D+00 EMaxC= 1.00D-01 BMatC= 1.33D-07 BMatP= 2.36D-07
 IDIUse=1 WtCom= 1.00D+00 WtEn= 0.00D+00
 Coeff-Com:  0.940D-04-0.975D-02-0.148D-01-0.480D-02 0.455D+00 0.574D+00
 Coeff:      0.940D-04-0.975D-02-0.148D-01-0.480D-02 0.455D+00 0.574D+00
 Gap=     0.269 Goal=   None    Shift=    0.000
 RMSDP=3.03D-06 MaxDP=4.95D-05 DE=-1.66D-07 OVMax= 1.16D-04

 Cycle   7  Pass 1  IDiag  1:
 E= -620.852972636346     Delta-E=       -0.000000128429 Rises=F Damp=F
 DIIS: error= 7.27D-06 at cycle   7 NSaved=   7.
 NSaved= 7 IEnMin= 7 EnMin= -620.852972636346     IErMin= 7 ErrMin= 7.27D-06
 ErrMax= 7.27D-06  0.00D+00 EMaxC= 1.00D-01 BMatC= 5.32D-09 BMatP= 1.33D-07
 IDIUse=1 WtCom= 1.00D+00 WtEn= 0.00D+00
 Coeff-Com:  0.115D-03-0.458D-02-0.835D-02-0.149D-01 0.975D-01 0.219D+00
 Coeff-Com:  0.712D+00
 Coeff:      0.115D-03-0.458D-02-0.835D-02-0.149D-01 0.975D-01 0.219D+00
 Coeff:      0.712D+00
 Gap=     0.269 Goal=   None    Shift=    0.000
 RMSDP=7.34D-07 MaxDP=1.43D-05 DE=-1.28D-07 OVMax= 3.24D-05

 Cycle   8  Pass 1  IDiag  1:
 E= -620.852972641674     Delta-E=       -0.000000005327 Rises=F Damp=F
 DIIS: error= 3.14D-06 at cycle   8 NSaved=   8.
 NSaved= 8 IEnMin= 8 EnMin= -620.852972641674     IErMin= 8 ErrMin= 3.14D-06
 ErrMax= 3.14D-06  0.00D+00 EMaxC= 1.00D-01 BMatC= 1.11D-09 BMatP= 5.32D-09
 IDIUse=1 WtCom= 1.00D+00 WtEn= 0.00D+00
 Coeff-Com:  0.328D-04-0.566D-03-0.146D-02-0.682D-02-0.225D-01 0.217D-01
 Coeff-Com:  0.358D+00 0.652D+00
 Coeff:      0.328D-04-0.566D-03-0.146D-02-0.682D-02-0.225D-01 0.217D-01
 Coeff:      0.358D+00 0.652D+00
 Gap=     0.269 Goal=   None    Shift=    0.000
 RMSDP=2.75D-07 MaxDP=7.23D-06 DE=-5.33D-09 OVMax= 1.45D-05

 Cycle   9  Pass 1  IDiag  1:
 E= -620.852972642821     Delta-E=       -0.000000001147 Rises=F Damp=F
 DIIS: error= 4.77D-07 at cycle   9 NSaved=   9.
 NSaved= 9 IEnMin= 9 EnMin= -620.852972642821     IErMin= 9 ErrMin= 4.77D-07
 ErrMax= 4.77D-07  0.00D+00 EMaxC= 1.00D-01 BMatC= 3.66D-11 BMatP= 1.11D-09
 IDIUse=1 WtCom= 1.00D+00 WtEn= 0.00D+00
 Coeff-Com: -0.259D-05 0.268D-03 0.480D-03-0.409D-03-0.117D-01-0.161D-01
 Coeff-Com:  0.775D-02 0.125D+00 0.895D+00
 Coeff:     -0.259D-05 0.268D-03 0.480D-03-0.409D-03-0.117D-01-0.161D-01
 Coeff:      0.775D-02 0.125D+00 0.895D+00
 Gap=     0.269 Goal=   None    Shift=    0.000
 RMSDP=8.88D-08 MaxDP=1.92D-06 DE=-1.15D-09 OVMax= 3.55D-06

 Cycle  10  Pass 1  IDiag  1:
 E= -620.852972642868     Delta-E=       -0.000000000047 Rises=F Damp=F
 DIIS: error= 2.60D-07 at cycle  10 NSaved=  10.
 NSaved=10 IEnMin=10 EnMin= -620.852972642868     IErMin=10 ErrMin= 2.60D-07
 ErrMax= 2.60D-07  0.00D+00 EMaxC= 1.00D-01 BMatC= 1.27D-11 BMatP= 3.66D-11
 IDIUse=1 WtCom= 1.00D+00 WtEn= 0.00D+00
 Coeff-Com: -0.459D-05 0.200D-03 0.418D-03 0.449D-03-0.388D-02-0.114D-01
 Coeff-Com: -0.350D-01-0.154D-02 0.479D+00 0.572D+00
 Coeff:     -0.459D-05 0.200D-03 0.418D-03 0.449D-03-0.388D-02-0.114D-01
 Coeff:     -0.350D-01-0.154D-02 0.479D+00 0.572D+00
 Gap=     0.269 Goal=   None    Shift=    0.000
 RMSDP=3.10D-08 MaxDP=6.29D-07 DE=-4.71D-11 OVMax= 9.96D-07

 Cycle  11  Pass 1  IDiag  1:
 E= -620.852972642884     Delta-E=       -0.000000000016 Rises=F Damp=F
 DIIS: error= 6.36D-08 at cycle  11 NSaved=  11.
 NSaved=11 IEnMin=11 EnMin= -620.852972642884     IErMin=11 ErrMin= 6.36D-08
 ErrMax= 6.36D-08  0.00D+00 EMaxC= 1.00D-01 BMatC= 4.14D-13 BMatP= 1.27D-11
 IDIUse=1 WtCom= 1.00D+00 WtEn= 0.00D+00
 Coeff-Com: -0.139D-05 0.475D-04 0.106D-03 0.161D-03-0.457D-03-0.248D-02
 Coeff-Com: -0.107D-01-0.744D-02 0.832D-01 0.174D+00 0.763D+00
 Coeff:     -0.139D-05 0.475D-04 0.106D-03 0.161D-03-0.457D-03-0.248D-02
 Coeff:     -0.107D-01-0.744D-02 0.832D-01 0.174D+00 0.763D+00
 Gap=     0.269 Goal=   None    Shift=    0.000
 RMSDP=7.90D-09 MaxDP=1.01D-07 DE=-1.61D-11 OVMax= 4.75D-07

 SCF Done:  E(RM062X) =  -620.852972643     A.U. after   11 cycles
            NFock= 11  Conv=0.79D-08     -V/T= 2.0079
 KE= 6.159676861854D+02 PE=-3.203227105444D+03 EE= 1.086004130626D+03
 Leave Link  502 at Mon Aug 11 17:12:29 2025, MaxMem=  2147483648 cpu:              60.7 elap:              16.8
 (Enter /opt/apps/pkg/applications/licensed/gaussian/v16/x86_64AVX2/g16/l801.exe)
 DoSCS=F DFT=T ScalE2(SS,OS)=  1.000000  1.000000
 ExpMin= 1.83D-01 ExpMax= 2.43D+02 ExpMxC= 2.43D+02 IAcc=3 IRadAn=         5 AccDes= 0.00D+00
 HarFok:  IExCor=  205 AccDes= 0.00D+00 IRadAn=         5 IDoV=-2 UseB2=F ITyADJ=14
 ICtDFT= 12500011 ScaDFX=  1.000000  1.000000  1.000000  1.000000
 Largest valence mixing into a core orbital is  3.04D-04
 Largest core mixing into a valence orbital is  1.08D-04
 Range of M.O.s used for correlation:    15   152
 NBasis=   152 NAE=    51 NBE=    51 NFC=    14 NFV=     0
 NROrb=    138 NOA=    37 NOB=    37 NVA=   101 NVB=   101
 Leave Link  801 at Mon Aug 11 17:12:30 2025, MaxMem=  2147483648 cpu:               0.7 elap:               0.4
 (Enter /opt/apps/pkg/applications/licensed/gaussian/v16/x86_64AVX2/g16/l914.exe)
 RHF ground state
 Keep R1, R2, and R3 ints in memory in canonical form, NReq=217978249.
 FoFCou: FMM=F IPFlag=           0 FMFlag=           0 FMFlg1=           0
         NFxFlg=           0 DoJE=F BraDBF=F KetDBF=F FulRan=T
         wScrn=  0.000000 ICntrl=       600 IOpCl=  0 I1Cent=           0 NGrid=           0
         NMat0=    1 NMatS0=  11628 NMatT0=    0 NMatD0=    1 NMtDS0=    0 NMtDT0=    0
 Symmetry not used in FoFCou.
 Two-electron integral symmetry not used.
 MDV=  2147483648 DFT=T DoStab=F Mixed=T DoRPA=T DoScal=F NonHer=T
 Making orbital integer symmetry assigments:
    24 initial guesses have been made.
 Convergence on wavefunction:    0.001000000000000
 Davidson Disk Diagonalization:  ConvIn= 1.00D-03 SkipCon=T Conv= 1.00D-03.
 Max sub-space:  2000 roots to seek:    24 dimension of matrix:         7474
 Iteration     1 Dimension    24 NMult     0 NNew     24
 CISAX will form    24 AO SS matrices at one time.
 NMat=    24 NSing=    12 JSym2X= 0.
 New state      1 was old state      2
 New state      2 was old state     10
 New state      3 was old state      8
 New state      4 was old state      7
 New state      5 was old state      6
 New state      6 was old state     12
 New state      7 was old state      5
 New state      8 was old state      1
 New state      9 was old state      4
 New state     10 was old state     14
 New state     11 was old state     16
 New state     12 was old state     18
 Excitation Energies [eV] at current iteration:
 Root      1 :     4.279438063482422
 Root      2 :     4.534404507850911
 Root      3 :     4.816282979652363
 Root      4 :     5.020415136132602
 Root      5 :     5.031735041246479
 Root      6 :     5.175121908428951
 Root      7 :     5.276417716059311
 Root      8 :     5.338230859328974
 Root      9 :     5.567777850765331
 Root     10 :     5.948766237123350
 Root     11 :     6.122624335129861
 Root     12 :     6.175666797371600
 Root     13 :     6.270226740694441
 Root     14 :     6.352205980824429
 Root     15 :     6.422727622413595
 Root     16 :     6.957507647120467
 Root     17 :     7.531584683789565
 Root     18 :     7.574214679187587
 Root     19 :     7.811419193141297
 Root     20 :     8.121435575020277
 Root     21 :     8.353395414688059
 Root     22 :     8.435326181294725
 Root     23 :     9.110451769303554
 Root     24 :     9.485975951579006
 Vector   5 SDiff=2.08D+00 TDiff=2.01D+00 assumed to be triplet.
 Vector   6 SDiff=1.50D-01 TDiff=3.04D+00 assumed to be singlet.
 Vector  11 SDiff=2.08D+00 TDiff=1.84D+00 assumed to be triplet.
 Vector  12 SDiff=1.18D-01 TDiff=2.64D+00 assumed to be singlet.
 Iteration     2 Dimension    36 NMult    24 NNew     12
 CISAX will form    12 AO SS matrices at one time.
 NMat=    12 NSing=     4 JSym2X= 0.
 New state      1 was old state      2
 Root      1 not converged, maximum delta is    0.349631863294998
 New state      2 was old state      1
 Root      2 not converged, maximum delta is    0.277778701404367
 Root      3 not converged, maximum delta is    0.093621694423573
 Root      4 not converged, maximum delta is    0.077862110215303
 New state      5 was old state      8
 Root      5 not converged, maximum delta is    0.286197010232795
 New state      6 was old state      7
 Root      6 not converged, maximum delta is    0.269018774138236
 Excitation Energies [eV] at current iteration:
 Root      1 :     3.988029508402207   Change is   -0.546374999448703
 Root      2 :     4.069829881120219   Change is   -0.209608182362203
 Root      3 :     4.491062535442375   Change is   -0.325220444209988
 Root      4 :     4.802250461766476   Change is   -0.218164674366127
 Root      5 :     5.029723733391380   Change is   -0.308507125937593
 Root      6 :     5.283652821455506   Change is    0.007235105396195
 Iteration     3 Dimension    48 NMult    36 NNew     12
 CISAX will form    12 AO SS matrices at one time.
 NMat=    12 NSing=     6 JSym2X= 0.
 Root      1 not converged, maximum delta is    0.024542168037166
 Root      2 not converged, maximum delta is    0.021615136476462
 Root      3 not converged, maximum delta is    0.020646105799360
 Root      4 not converged, maximum delta is    0.013067578584105
 Root      5 not converged, maximum delta is    0.438365732132139
 Root      6 not converged, maximum delta is    0.436428528345966
 Excitation Energies [eV] at current iteration:
 Root      1 :     3.969573600799159   Change is   -0.018455907603048
 Root      2 :     4.061184209091660   Change is   -0.008645672028559
 Root      3 :     4.480545917248850   Change is   -0.010516618193526
 Root      4 :     4.797171915798430   Change is   -0.005078545968045
 Root      5 :     4.950488774297082   Change is   -0.079234959094298
 Root      6 :     4.989275527875614   Change is   -0.294377293579892
 Iteration     4 Dimension    60 NMult    48 NNew     12
 CISAX will form    12 AO SS matrices at one time.
 NMat=    12 NSing=     6 JSym2X= 0.
 Root      1 not converged, maximum delta is    0.005200373296801
 Root      2 not converged, maximum delta is    0.003340869706054
 Root      3 not converged, maximum delta is    0.012431186671242
 Root      4 not converged, maximum delta is    0.001851960458575
 Root      5 not converged, maximum delta is    0.027554936548330
 Root      6 not converged, maximum delta is    0.026205240018112
 Excitation Energies [eV] at current iteration:
 Root      1 :     3.968653601466563   Change is   -0.000919999332596
 Root      2 :     4.060646148866916   Change is   -0.000538060224744
 Root      3 :     4.479796359557516   Change is   -0.000749557691334
 Root      4 :     4.796756956377504   Change is   -0.000414959420926
 Root      5 :     4.943494551144885   Change is   -0.006994223152198
 Root      6 :     4.983087751974111   Change is   -0.006187775901503
 Iteration     5 Dimension    72 NMult    60 NNew     12
 CISAX will form    12 AO SS matrices at one time.
 NMat=    12 NSing=     6 JSym2X= 0.
 Root      1 not converged, maximum delta is    0.002773783907229
 Root      2 not converged, maximum delta is    0.002199911584941
 Root      3 not converged, maximum delta is    0.004899533654934
 Root      4 has converged.
 Root      5 not converged, maximum delta is    0.002869311651858
 Root      6 not converged, maximum delta is    0.002509005729162
 Excitation Energies [eV] at current iteration:
 Root      1 :     3.968515226559921   Change is   -0.000138374906642
 Root      2 :     4.060571955187253   Change is   -0.000074193679663
 Root      3 :     4.479731205271261   Change is   -0.000065154286255
 Root      4 :     4.796726591610160   Change is   -0.000030364767344
 Root      5 :     4.943022572136530   Change is   -0.000471979008355
 Root      6 :     4.982676672483713   Change is   -0.000411079490398
 Iteration     6 Dimension    82 NMult    72 NNew     10
 CISAX will form    10 AO SS matrices at one time.
 NMat=    10 NSing=     4 JSym2X= 0.
 Root      1 has converged.
 Root      2 has converged.
 Root      3 not converged, maximum delta is    0.001832839046205
 Root      4 has converged.
 Root      5 has converged.
 Root      6 has converged.
 Excitation Energies [eV] at current iteration:
 Root      1 :     3.968502882361532   Change is   -0.000012344198388
 Root      2 :     4.060564000992025   Change is   -0.000007954195229
 Root      3 :     4.479718223091903   Change is   -0.000012982179358
 Root      4 :     4.796725844793897   Change is   -0.000000746816263
 Root      5 :     4.942972863899227   Change is   -0.000049708237303
 Root      6 :     4.982628338615804   Change is   -0.000048333867909
 Iteration     7 Dimension    84 NMult    82 NNew      2
 CISAX will form     2 AO SS matrices at one time.
 NMat=     2 NSing=     0 JSym2X= 0.
 Root      1 has converged.
 Root      2 has converged.
 Root      3 has converged.
 Root      4 has converged.
 Root      5 has converged.
 Root      6 has converged.
 Excitation Energies [eV] at current iteration:
 Root      1 :     3.968502616806499   Change is   -0.000000265555033
 Root      2 :     4.060563752668252   Change is   -0.000000248323772
 Root      3 :     4.479717053194207   Change is   -0.000001169897696
 Root      4 :     4.796725844793846   Change is   -0.000000000000051
 Root      5 :     4.942972863899211   Change is   -0.000000000000017
 Root      6 :     4.982628338615737   Change is   -0.000000000000066
 Convergence achieved on expansion vectors.
 ***********************************************************************
 Excited states from <AA,BB:AA,BB> singles matrix:
 ***********************************************************************
 
 1PDM for each excited state written to RWF  633
 Ground to excited state transition densities written to RWF  633
 Ground to excited state transition electric dipole moments (Au):
       state          X           Y           Z        Dip. S.      Osc.
         1        -0.0000      0.0000     -0.0000      0.0000      0.0000
         2         0.0000      0.0000     -0.0000      0.0000      0.0000
         3         0.0000      0.0000      0.0000      0.0000      0.0000
         4        -0.0202     -0.0019     -0.0673      0.0049      0.0006
         5         0.1696      0.0732      0.5056      0.2897      0.0351
         6        -0.4093     -0.2421     -0.3402      0.3418      0.0417
 Ground to excited state transition velocity dipole moments (Au):
       state          X           Y           Z        Dip. S.      Osc.
         1        -0.0000     -0.0000     -0.0000      0.0000      0.0000
         2        -0.0000     -0.0000     -0.0000      0.0000      0.0000
         3        -0.0000     -0.0000     -0.0000      0.0000      0.0000
         4        -0.0022     -0.0028      0.0144      0.0002      0.0008
         5         0.0082      0.0086     -0.1038      0.0109      0.0401
         6         0.0876      0.0599      0.0216      0.0117      0.0427
 Ground to excited state transition magnetic dipole moments (Au):
       state          X           Y           Z
         1        -0.0000      0.0000     -0.0000
         2         0.0000      0.0000     -0.0000
         3         0.0000      0.0000     -0.0000
         4        -0.4059      0.5533      0.0285
         5         0.2222      0.7431      0.5358
         6         0.3424      0.0513      0.6939
 Ground to excited state transition velocity quadrupole moments (Au):
       state          XX          YY          ZZ          XY          XZ          YZ
         1        -0.0000      0.0000     -0.0000      0.0000     -0.0000      0.0000
         2        -0.0000      0.0000     -0.0000      0.0000     -0.0000      0.0000
         3        -0.0000      0.0000      0.0000     -0.0000     -0.0000      0.0000
         4         0.0990      0.0669     -0.2360      0.0602      0.1331     -0.0414
         5         0.1399     -0.0212      0.3646      0.1445     -0.7429      0.6350
         6         1.3488     -0.6455     -0.2211     -0.0928      0.0141     -0.3116
 <0|del|b> * <b|rxdel|0> + <0|del|b> * <b|delr+rdel|0>
 Rotatory Strengths (R) in cgs (10**-40 erg-esu-cm/Gauss)
       state          XX          YY          ZZ    R(velocity)    E-M Angle
         1        -0.0000      0.0000     -0.0000      0.0000       90.00
         2        -0.0000      0.0000     -0.0000     -0.0000       90.00
         3         0.0000     -0.0000      0.0000      0.0000       90.00
         4         0.1711      1.0325     -2.3129     -0.3698       91.56
         5      -112.6832    -65.3478     -6.6141    -61.5484      118.77
         6        29.4238     38.0841    118.1993     61.9024       55.07
 1/2[<0|r|b>*<b|rxdel|0> + (<0|rxdel|b>*<b|r|0>)*]
 Rotatory Strengths (R) in cgs (10**-40 erg-esu-cm/Gauss)
       state          XX          YY          ZZ     R(length)
         1        -0.0000     -0.0000     -0.0000     -0.0000
         2        -0.0000     -0.0000     -0.0000     -0.0000
         3        -0.0000     -0.0000      0.0000      0.0000
         4        -5.7943      0.7426      1.3591     -1.2309
         5       -26.6571    -38.4872   -191.5753    -85.5732
         6        99.0985      8.7841    166.9244     91.6023
  1/2[<0|del|b>*<b|r|0> + (<0|r|b>*<b|del|0>)*] (Au)
       state          X           Y           Z        Dip. S.   Osc.(frdel)
         1         0.0000     -0.0000      0.0000     -0.0000     -0.0000
         2        -0.0000     -0.0000      0.0000      0.0000      0.0000
         3        -0.0000     -0.0000     -0.0000      0.0000      0.0000
         4         0.0000      0.0000     -0.0010      0.0009      0.0006
         5         0.0014      0.0006     -0.0525      0.0505      0.0336
         6        -0.0359     -0.0145     -0.0074      0.0577      0.0385

 Excitation energies and oscillator strengths:
 
 Excited state symmetry could not be determined.
 Excited State   1:      Triplet-?Sym    3.9685 eV  312.42 nm  f=0.0000  <S**2>=2.000
      47 -> 52         0.47681
      47 -> 54        -0.15345
      50 -> 52        -0.34546
      51 -> 52        -0.26527
      51 -> 53        -0.20730
 This state for optimization and/or second-order correction.
 Total Energy, E(TD-HF/TD-DFT) =  -620.707132855    
 Copying the excited state density for this state as the 1-particle RhoCI density.
 
 Excited state symmetry could not be determined.
 Excited State   2:      Triplet-?Sym    4.0606 eV  305.34 nm  f=0.0000  <S**2>=2.000
      50 -> 52        -0.32670
      51 -> 52         0.58206
 
 Excited state symmetry could not be determined.
 Excited State   3:      Triplet-?Sym    4.4797 eV  276.77 nm  f=0.0000  <S**2>=2.000
      48 -> 52         0.63784
      49 -> 52        -0.22179
      49 -> 53         0.11286
 
 Excited state symmetry could not be determined.
 Excited State   4:      Singlet-?Sym    4.7967 eV  258.48 nm  f=0.0006  <S**2>=0.000
      48 -> 52         0.66602
      49 -> 52        -0.17841
 
 Excited state symmetry could not be determined.
 Excited State   5:      Singlet-?Sym    4.9430 eV  250.83 nm  f=0.0351  <S**2>=0.000
      48 -> 52         0.17699
      49 -> 52         0.46698
      49 -> 54         0.10443
      51 -> 52        -0.45543
 
 Excited state symmetry could not be determined.
 Excited State   6:      Singlet-?Sym    4.9826 eV  248.83 nm  f=0.0417  <S**2>=0.000
      49 -> 52         0.46590
      49 -> 54         0.10191
      50 -> 52        -0.13674
      51 -> 52         0.47322
 SavETr:  write IOETrn=   770 NScale= 10 NData=  16 NLR=1 NState=    6 LETran=     118.
 Leave Link  914 at Mon Aug 11 17:14:32 2025, MaxMem=  2147483648 cpu:             485.1 elap:             122.3
 (Enter /opt/apps/pkg/applications/licensed/gaussian/v16/x86_64AVX2/g16/l601.exe)
 Copying SCF densities to generalized density rwf, IOpCl= 0 IROHF=0.

 **********************************************************************

            Population analysis using the SCF density.

 **********************************************************************

 Alpha  occ. eigenvalues --  -14.71275 -14.69929 -14.67183 -14.66978 -14.66840
 Alpha  occ. eigenvalues --  -10.60133 -10.59701 -10.56619 -10.51991 -10.51906
 Alpha  occ. eigenvalues --  -10.49222 -10.49166 -10.48463 -10.48157  -1.14427
 Alpha  occ. eigenvalues --   -1.07711  -1.03718  -0.98973  -0.95985  -0.89000
 Alpha  occ. eigenvalues --   -0.87021  -0.83171  -0.75642  -0.74880  -0.68806
 Alpha  occ. eigenvalues --   -0.67697  -0.64395  -0.63628  -0.60932  -0.57624
 Alpha  occ. eigenvalues --   -0.56074  -0.55051  -0.52897  -0.52476  -0.49671
 Alpha  occ. eigenvalues --   -0.48074  -0.47812  -0.46467  -0.46065  -0.42710
 Alpha  occ. eigenvalues --   -0.42377  -0.41733  -0.41107  -0.40425  -0.39504
 Alpha  occ. eigenvalues --   -0.39276  -0.30852  -0.30193  -0.29948  -0.28628
 Alpha  occ. eigenvalues --   -0.26251
 Alpha virt. eigenvalues --    0.00698   0.06481   0.12381   0.15433   0.17142
 Alpha virt. eigenvalues --    0.18508   0.20404   0.20505   0.20871   0.21169
 Alpha virt. eigenvalues --    0.22335   0.22700   0.23523   0.24073   0.24304
 Alpha virt. eigenvalues --    0.25180   0.27770   0.28606   0.29076   0.29890
 Alpha virt. eigenvalues --    0.31268   0.34029   0.34663   0.37109   0.38392
 Alpha virt. eigenvalues --    0.41471   0.41782   0.44951   0.48159   0.52193
 Alpha virt. eigenvalues --    0.54196   0.63731   0.70089   0.72890   0.74212
 Alpha virt. eigenvalues --    0.75831   0.77677   0.78195   0.79052   0.80112
 Alpha virt. eigenvalues --    0.80826   0.81597   0.82019   0.83631   0.83990
 Alpha virt. eigenvalues --    0.85923   0.86958   0.87412   0.88694   0.90990
 Alpha virt. eigenvalues --    0.91467   0.93660   0.96989   0.97715   0.98711
 Alpha virt. eigenvalues --    1.04316   1.05945   1.07979   1.09000   1.10445
 Alpha virt. eigenvalues --    1.11871   1.13424   1.15568   1.16506   1.17499
 Alpha virt. eigenvalues --    1.18352   1.18801   1.19849   1.20831   1.21085
 Alpha virt. eigenvalues --    1.23116   1.25675   1.26731   1.27834   1.29941
 Alpha virt. eigenvalues --    1.30779   1.40417   1.41774   1.42179   1.45795
 Alpha virt. eigenvalues --    1.48834   1.51243   1.54553   1.55636   1.62136
 Alpha virt. eigenvalues --    1.63891   1.68848   1.75311   1.82168   1.87933
 Alpha virt. eigenvalues --    1.89186   1.93611   1.95466   2.02966   2.12707
 Alpha virt. eigenvalues --    2.28066   2.59437   2.84348   2.91803   3.05594
 Alpha virt. eigenvalues --    3.13919
          Condensed to atoms (all electrons):
               1          2          3          4          5          6
     1  C    5.214440   0.502963  -0.092322   0.003777  -0.000192   0.000017
     2  C    0.502963   5.261621   0.332614  -0.093480   0.004615  -0.000231
     3  C   -0.092322   0.332614   4.777704   0.408573  -0.105780  -0.018227
     4  N    0.003777  -0.093480   0.408573   7.122473   0.418447  -0.077605
     5  C   -0.000192   0.004615  -0.105780   0.418447   4.382907   0.415737
     6  N    0.000017  -0.000231  -0.018227  -0.077605   0.415737   7.114887
     7  C   -0.000138   0.003557  -0.110697  -0.021646  -0.105910   0.412271
     8  N    0.004367  -0.078324   0.374104  -0.092841  -0.023982  -0.079952
     9  N    0.000000  -0.000038   0.001309  -0.000045   0.001282  -0.082292
    10  N    0.000001  -0.000019   0.001512  -0.077775   0.265368  -0.077957
    11  C   -0.000024  -0.000026   0.000487   0.003567  -0.049225   0.001804
    12  C    0.000000  -0.000000   0.000001   0.000313   0.005117  -0.000036
    13  C   -0.000000   0.000000   0.000002  -0.000038   0.004967   0.000295
    14  C   -0.000000   0.000001  -0.000112   0.001806  -0.049504   0.003422
    15  H    0.378162  -0.045932   0.004067   0.000173   0.000001   0.000000
    16  H    0.385364  -0.056569  -0.004543   0.014206  -0.000040   0.000008
    17  H   -0.035998   0.382092  -0.038759   0.002548  -0.000057   0.000012
    18  H   -0.000000   0.000001  -0.000126   0.000019   0.000263   0.003928
    19  H    0.000000  -0.000018   0.000378   0.000021  -0.000120   0.003118
    20  H   -0.000001  -0.000001  -0.000015   0.001512  -0.001684   0.000020
    21  H   -0.000001  -0.000029   0.000055   0.005950  -0.000940   0.000098
    22  H   -0.000000   0.000000   0.000000   0.000000  -0.000040   0.000000
    23  H   -0.000000   0.000000  -0.000000  -0.000001  -0.000169  -0.000000
    24  H    0.000000  -0.000000  -0.000000  -0.000000  -0.000167  -0.000001
    25  H    0.000000   0.000000  -0.000000   0.000000  -0.000039   0.000000
    26  H   -0.000000   0.000000   0.000004   0.000093  -0.000952   0.006083
    27  H    0.000000  -0.000000   0.000003   0.000018  -0.001722   0.001623
               7          8          9         10         11         12
     1  C   -0.000138   0.004367   0.000000   0.000001  -0.000024   0.000000
     2  C    0.003557  -0.078324  -0.000038  -0.000019  -0.000026  -0.000000
     3  C   -0.110697   0.374104   0.001309   0.001512   0.000487   0.000001
     4  N   -0.021646  -0.092841  -0.000045  -0.077775   0.003567   0.000313
     5  C   -0.105910  -0.023982   0.001282   0.265368  -0.049225   0.005117
     6  N    0.412271  -0.079952  -0.082292  -0.077957   0.001804  -0.000036
     7  C    4.402454   0.412578   0.275556   0.001305  -0.000102   0.000002
     8  N    0.412578   7.159075  -0.080917  -0.000104   0.000012   0.000000
     9  N    0.275556  -0.080917   7.049914  -0.000008   0.000000   0.000000
    10  N    0.001305  -0.000104  -0.000008   7.415620   0.246773  -0.061076
    11  C   -0.000102   0.000012   0.000000   0.246773   5.162469   0.268835
    12  C    0.000002   0.000000   0.000000  -0.061076   0.268835   5.443578
    13  C   -0.000000   0.000000  -0.000000  -0.061210  -0.097115   0.260361
    14  C    0.000403   0.000012  -0.000011   0.247420  -0.070033  -0.097652
    15  H    0.000001  -0.000018  -0.000000  -0.000000   0.000000   0.000000
    16  H    0.000008   0.000199   0.000000  -0.000034   0.000118   0.000001
    17  H    0.000106   0.004780  -0.000009   0.000000   0.000000  -0.000000
    18  H   -0.024346   0.003092   0.326201  -0.000008   0.000000  -0.000000
    19  H   -0.023745   0.004382   0.325327   0.000000  -0.000000   0.000000
    20  H    0.000003  -0.000000  -0.000000  -0.042624   0.376276  -0.044208
    21  H    0.000004   0.000001   0.000000  -0.036908   0.378828  -0.030597
    22  H   -0.000000   0.000000   0.000000   0.002217  -0.034508   0.384859
    23  H   -0.000000  -0.000000   0.000000   0.001151  -0.041214   0.378201
    24  H   -0.000000  -0.000000   0.000000   0.001140   0.002089  -0.044542
    25  H    0.000000   0.000000   0.000000   0.002220   0.003736  -0.031507
    26  H    0.000040   0.000002  -0.000011  -0.037259   0.002138   0.004049
    27  H   -0.000018  -0.000000  -0.000001  -0.042906   0.002932  -0.000968
              13         14         15         16         17         18
     1  C   -0.000000  -0.000000   0.378162   0.385364  -0.035998  -0.000000
     2  C    0.000000   0.000001  -0.045932  -0.056569   0.382092   0.000001
     3  C    0.000002  -0.000112   0.004067  -0.004543  -0.038759  -0.000126
     4  N   -0.000038   0.001806   0.000173   0.014206   0.002548   0.000019
     5  C    0.004967  -0.049504   0.000001  -0.000040  -0.000057   0.000263
     6  N    0.000295   0.003422   0.000000   0.000008   0.000012   0.003928
     7  C   -0.000000   0.000403   0.000001   0.000008   0.000106  -0.024346
     8  N    0.000000   0.000012  -0.000018   0.000199   0.004780   0.003092
     9  N   -0.000000  -0.000011  -0.000000   0.000000  -0.000009   0.326201
    10  N   -0.061210   0.247420  -0.000000  -0.000034   0.000000  -0.000008
    11  C   -0.097115  -0.070033   0.000000   0.000118   0.000000   0.000000
    12  C    0.260361  -0.097652   0.000000   0.000001  -0.000000  -0.000000
    13  C    5.441804   0.270117  -0.000000  -0.000000   0.000000   0.000000
    14  C    0.270117   5.162099   0.000000  -0.000000  -0.000000   0.000006
    15  H   -0.000000   0.000000   0.487909  -0.022408  -0.003638   0.000000
    16  H   -0.000000  -0.000000  -0.022408   0.454567   0.002431  -0.000000
    17  H    0.000000  -0.000000  -0.003638   0.002431   0.466711   0.000000
    18  H    0.000000   0.000006   0.000000  -0.000000   0.000000   0.373181
    19  H    0.000000   0.000000  -0.000000  -0.000000   0.000011  -0.017543
    20  H   -0.000938   0.002924  -0.000000   0.000020  -0.000000  -0.000000
    21  H    0.004033   0.002107  -0.000000   0.000243   0.000000  -0.000000
    22  H   -0.031505   0.003749  -0.000000   0.000000  -0.000000   0.000000
    23  H   -0.044622   0.002092  -0.000000  -0.000000  -0.000000   0.000000
    24  H    0.378198  -0.041244   0.000000   0.000000  -0.000000  -0.000000
    25  H    0.384839  -0.034621   0.000000  -0.000000  -0.000000  -0.000000
    26  H   -0.030595   0.378852  -0.000000  -0.000000  -0.000000   0.000012
    27  H   -0.044179   0.375838  -0.000000  -0.000000   0.000000   0.000001
              19         20         21         22         23         24
     1  C    0.000000  -0.000001  -0.000001  -0.000000  -0.000000   0.000000
     2  C   -0.000018  -0.000001  -0.000029   0.000000   0.000000  -0.000000
     3  C    0.000378  -0.000015   0.000055   0.000000  -0.000000  -0.000000
     4  N    0.000021   0.001512   0.005950   0.000000  -0.000001  -0.000000
     5  C   -0.000120  -0.001684  -0.000940  -0.000040  -0.000169  -0.000167
     6  N    0.003118   0.000020   0.000098   0.000000  -0.000000  -0.000001
     7  C   -0.023745   0.000003   0.000004  -0.000000  -0.000000  -0.000000
     8  N    0.004382  -0.000000   0.000001   0.000000  -0.000000  -0.000000
     9  N    0.325327  -0.000000   0.000000   0.000000   0.000000   0.000000
    10  N    0.000000  -0.042624  -0.036908   0.002217   0.001151   0.001140
    11  C   -0.000000   0.376276   0.378828  -0.034508  -0.041214   0.002089
    12  C    0.000000  -0.044208  -0.030597   0.384859   0.378201  -0.044542
    13  C    0.000000  -0.000938   0.004033  -0.031505  -0.044622   0.378198
    14  C    0.000000   0.002924   0.002107   0.003749   0.002092  -0.041244
    15  H   -0.000000  -0.000000  -0.000000  -0.000000  -0.000000   0.000000
    16  H   -0.000000   0.000020   0.000243   0.000000  -0.000000   0.000000
    17  H    0.000011  -0.000000   0.000000  -0.000000  -0.000000  -0.000000
    18  H   -0.017543  -0.000000  -0.000000   0.000000   0.000000  -0.000000
    19  H    0.368914   0.000000  -0.000000  -0.000000  -0.000000  -0.000000
    20  H    0.000000   0.521799  -0.034673  -0.001643   0.003066   0.001037
    21  H   -0.000000  -0.034673   0.480774   0.000416  -0.004119  -0.000024
    22  H   -0.000000  -0.001643   0.000416   0.490486  -0.023189  -0.003490
    23  H   -0.000000   0.003066  -0.004119  -0.023189   0.511728   0.003290
    24  H   -0.000000   0.001037  -0.000024  -0.003490   0.003290   0.511577
    25  H   -0.000000  -0.000105  -0.000040  -0.000039  -0.003491  -0.023201
    26  H   -0.000000   0.000197  -0.000108  -0.000040  -0.000023  -0.004128
    27  H   -0.000000  -0.000195   0.000201  -0.000105   0.001043   0.003077
              25         26         27
     1  C    0.000000  -0.000000   0.000000
     2  C    0.000000   0.000000  -0.000000
     3  C   -0.000000   0.000004   0.000003
     4  N    0.000000   0.000093   0.000018
     5  C   -0.000039  -0.000952  -0.001722
     6  N    0.000000   0.006083   0.001623
     7  C    0.000000   0.000040  -0.000018
     8  N    0.000000   0.000002  -0.000000
     9  N    0.000000  -0.000011  -0.000001
    10  N    0.002220  -0.037259  -0.042906
    11  C    0.003736   0.002138   0.002932
    12  C   -0.031507   0.004049  -0.000968
    13  C    0.384839  -0.030595  -0.044179
    14  C   -0.034621   0.378852   0.375838
    15  H    0.000000  -0.000000  -0.000000
    16  H   -0.000000  -0.000000  -0.000000
    17  H   -0.000000  -0.000000   0.000000
    18  H   -0.000000   0.000012   0.000001
    19  H   -0.000000  -0.000000  -0.000000
    20  H   -0.000105   0.000197  -0.000195
    21  H   -0.000040  -0.000108   0.000201
    22  H   -0.000039  -0.000040  -0.000105
    23  H   -0.003491  -0.000023   0.001043
    24  H   -0.023201  -0.004128   0.003077
    25  H    0.491122   0.000407  -0.001628
    26  H    0.000407   0.483826  -0.035136
    27  H   -0.001628  -0.035136   0.524340
 Mulliken charges:
               1
     1  C   -0.360413
     2  C   -0.212798
     3  C    0.469769
     4  N   -0.620065
     5  C    0.841820
     6  N   -0.627022
     7  C    0.778315
     8  N   -0.606465
     9  N   -0.816258
    10  N   -0.746839
    11  C   -0.157819
    12  C   -0.434730
    13  C   -0.434414
    14  C   -0.157670
    15  H    0.201681
    16  H    0.226428
    17  H    0.219771
    18  H    0.335319
    19  H    0.339275
    20  H    0.219233
    21  H    0.234729
    22  H    0.212832
    23  H    0.216256
    24  H    0.216389
    25  H    0.212346
    26  H    0.232548
    27  H    0.217781
 Sum of Mulliken charges =  -0.00000
 Mulliken charges with hydrogens summed into heavy atoms:
               1
     1  C    0.067696
     2  C    0.006973
     3  C    0.469769
     4  N   -0.620065
     5  C    0.841820
     6  N   -0.627022
     7  C    0.778315
     8  N   -0.606465
     9  N   -0.141664
    10  N   -0.746839
    11  C    0.296144
    12  C   -0.005642
    13  C   -0.005680
    14  C    0.292660
 Electronic spatial extent (au):  <R**2>=          11474.0479
 Charge=              0.0000 electrons
 Dipole moment (field-independent basis, Debye):
    X=              0.5909    Y=             -2.0391    Z=             -0.8997  Tot=              2.3057
 Quadrupole moment (field-independent basis, Debye-Ang):
   XX=            -71.0340   YY=            -65.7814   ZZ=            -72.1176
   XY=            -11.7128   XZ=              4.1803   YZ=              8.2218
 Traceless Quadrupole moment (field-independent basis, Debye-Ang):
   XX=             -1.3896   YY=              3.8629   ZZ=             -2.4733
   XY=            -11.7128   XZ=              4.1803   YZ=              8.2218
 Octapole moment (field-independent basis, Debye-Ang**2):
  XXX=           -694.3203  YYY=            646.3101  ZZZ=            373.6769  XYY=           -202.8043
  XXY=            165.8591  XXZ=            183.4027  XZZ=           -239.8613  YZZ=            193.5330
  YYZ=             87.4041  XYZ=              4.8664
 Hexadecapole moment (field-independent basis, Debye-Ang**3):
 XXXX=          -5223.9442 YYYY=          -5710.3376 ZZZZ=          -2760.8493 XXXY=           1936.9793
 XXXZ=           1389.4361 YYYX=           2159.6117 YYYZ=          -1487.2369 ZZZX=            973.0183
 ZZZY=          -1592.3456 XXYY=          -1691.7560 XXZZ=          -1391.3427 YYZZ=          -1277.2995
 XXYZ=           -687.6506 YYXZ=            265.0483 ZZXY=            687.6231
 N-N= 8.804023159895D+02 E-N=-3.203227102563D+03  KE= 6.159676861854D+02
 Leave Link  601 at Mon Aug 11 17:14:32 2025, MaxMem=  2147483648 cpu:               0.2 elap:               0.2
 (Enter /opt/apps/pkg/applications/licensed/gaussian/v16/x86_64AVX2/g16/l9999.exe)
 Electronic transition elements 
                 1             2             3             4             5 
      1  -0.620707D+03 -0.620704D+03 -0.620688D+03 -0.620677D+03 -0.620671D+03
      2   0.000000D+00  0.000000D+00  0.000000D+00 -0.201845D-01  0.169612D+00
      3   0.000000D+00  0.000000D+00  0.000000D+00 -0.189774D-02  0.732360D-01
      4   0.000000D+00  0.000000D+00  0.000000D+00 -0.673270D-01  0.505574D+00
      5   0.000000D+00  0.000000D+00  0.000000D+00 -0.216703D-02  0.823871D-02
      6   0.000000D+00  0.000000D+00  0.000000D+00 -0.283060D-02  0.858324D-02
      7   0.000000D+00  0.000000D+00  0.000000D+00  0.143631D-01 -0.103837D+00
      8   0.000000D+00  0.000000D+00  0.000000D+00 -0.405943D+00  0.222247D+00
      9   0.000000D+00  0.000000D+00  0.000000D+00  0.553322D+00  0.743141D+00
     10   0.000000D+00  0.000000D+00  0.000000D+00  0.285465D-01  0.535839D+00
     11   0.000000D+00  0.000000D+00  0.000000D+00  0.990434D-01  0.139912D+00
     12   0.000000D+00  0.000000D+00  0.000000D+00  0.669441D-01 -0.211574D-01
     13   0.000000D+00  0.000000D+00  0.000000D+00 -0.235957D+00  0.364577D+00
     14   0.000000D+00  0.000000D+00  0.000000D+00  0.601967D-01  0.144510D+00
     15   0.000000D+00  0.000000D+00  0.000000D+00  0.133147D+00 -0.742885D+00
     16   0.000000D+00  0.000000D+00  0.000000D+00 -0.413705D-01  0.634954D+00
                 6 
      1  -0.620670D+03
      2  -0.409285D+00
      3  -0.242086D+00
      4  -0.340157D+00
      5   0.876152D-01
      6   0.598628D-01
      7   0.216383D-01
      8   0.342389D+00
      9   0.513104D-01
     10   0.693935D+00
     11   0.134882D+01
     12  -0.645530D+00
     13  -0.221133D+00
     14  -0.927855D-01
     15   0.140640D-01
     16  -0.311583D+00
 1\1\GINC-NODE047\SP\RM062X TD-FC\3-21G*\C9H13N5\SGOOMAR1\11-Aug-2025\0
 \\#p td=(nstates=3,50-50) m062x 3-21g* guess=read geom=check integral=
 ultrafine nosymm\\title\\0,1\C,0,1.4965006249,0.3923986676,-0.98098981
 04\C,0,2.5099656443,-0.0362358408,-0.2378856837\C,0,3.1971405315,-1.30
 97263232,-0.4890482773\N,0,2.7777157351,-2.0765066151,-1.50554618\C,0,
 3.4529177795,-3.240951758,-1.6751713814\N,0,4.4846040508,-3.6475465824
 ,-0.9007248526\C,0,4.8207841692,-2.8000386372,0.0850177195\N,0,4.20855
 40872,-1.6151710761,0.3389678937\N,0,5.8424682552,-3.1429778514,0.8913
 114838\N,0,3.0697427594,-4.0431421001,-2.6782510567\C,0,1.9440313425,-
 3.7294912348,-3.5807391009\C,0,1.7213758137,-5.0682863232,-4.316645914
 5\C,0,3.1376980211,-5.6906196833,-4.3613320493\C,0,3.7277713164,-5.328
 8150774,-2.9815365946\H,0,1.0010317315,1.3318024262,-0.7859396007\H,0,
 1.1460893367,-0.2046791943,-1.8097901655\H,0,2.8990656491,0.5216121535
 ,0.5997647473\H,0,6.323042846,-4.0140166257,0.7400117548\H,0,6.1059463
 509,-2.5203611582,1.6368558473\H,0,2.2229834653,-2.9342492382,-4.27494
 58957\H,0,1.0803066159,-3.3996612039,-3.0089067071\H,0,1.2903886379,-4
 .9266402166,-5.3059253483\H,0,1.0595294352,-5.7053706265,-3.7284122819
 \H,0,3.7231762982,-5.212793594,-5.1480442575\H,0,3.1223347575,-6.76516
 42232,-4.5332236577\H,0,4.8083791098,-5.2087064311,-2.9886200185\H,0,3
 .4684756351,-6.0764216325,-2.2285806121\\Version=ES64L-G16RevA.03\HF=-
 620.8529726\RMSD=7.902e-09\PG=C01 [X(C9H13N5)]\\@


 FROM THE ASHES OF OUR DESPAIR GROW THE FLOWERS OF TOMORROW.
 Job cpu time:       0 days  0 hours  9 minutes  9.7 seconds.
 Elapsed time:       0 days  0 hours  2 minutes 21.7 seconds.
 File lengths (MBytes):  RWF=    259 Int=      0 D2E=      0 Chk=     10 Scr=      1
 Normal termination of Gaussian 16 at Mon Aug 11 17:14:32 2025.
