 Entering Gaussian System, Link 0=g16
 Input=td_ZINC000032104853_04.com
 Output=td_ZINC000032104853_04.log
 Initial command:
 /opt/apps/pkg/applications/licensed/gaussian/v16/x86_64AVX2/g16/l1.exe "/tmp/Gau-2828206.inp" -scrdir="/tmp/"
 Entering Link 1 = /opt/apps/pkg/applications/licensed/gaussian/v16/x86_64AVX2/g16/l1.exe PID=   2828210.
  
 Copyright (c) 1988,1990,1992,1993,1995,1998,2003,2009,2016,
            Gaussian, Inc.  All Rights Reserved.
  
 This is part of the Gaussian(R) 16 program.  It is based on
 the Gaussian(R) 09 system (copyright 2009, Gaussian, Inc.),
 the Gaussian(R) 03 system (copyright 2003, Gaussian, Inc.),
 the Gaussian(R) 98 system (copyright 1998, Gaussian, Inc.),
 the Gaussian(R) 94 system (copyright 1995, Gaussian, Inc.),
 the Gaussian 92(TM) system (copyright 1992, Gaussian, Inc.),
 the Gaussian 90(TM) system (copyright 1990, Gaussian, Inc.),
 the Gaussian 88(TM) system (copyright 1988, Gaussian, Inc.),
 the Gaussian 86(TM) system (copyright 1986, Carnegie Mellon
 University), and the Gaussian 82(TM) system (copyright 1983,
 Carnegie Mellon University). Gaussian is a federally registered
 trademark of Gaussian, Inc.
  
 This software contains proprietary and confidential information,
 including trade secrets, belonging to Gaussian, Inc.
  
 This software is provided under written license and may be
 used, copied, transmitted, or stored only in accord with that
 written license.
  
 The following legend is applicable only to US Government
 contracts under FAR:
  
                    RESTRICTED RIGHTS LEGEND
  
 Use, reproduction and disclosure by the US Government is
 subject to restrictions as set forth in subparagraphs (a)
 and (c) of the Commercial Computer Software - Restricted
 Rights clause in FAR 52.227-19.
  
 Gaussian, Inc.
 340 Quinnipiac St., Bldg. 40, Wallingford CT 06492
  
  
 ---------------------------------------------------------------
 Warning -- This program may not be used in any manner that
 competes with the business of Gaussian, Inc. or will provide
 assistance to any competitor of Gaussian, Inc.  The licensee
 of this program is prohibited from giving any competitor of
 Gaussian, Inc. access to this program.  By using this program,
 the user acknowledges that Gaussian, Inc. is engaged in the
 business of creating and licensing software in the field of
 computational chemistry and represents and warrants to the
 licensee that it is not a competitor of Gaussian, Inc. and that
 it will not use this program in any manner prohibited above.
 ---------------------------------------------------------------
  

 Cite this work as:
 Gaussian 16, Revision A.03,
 M. J. Frisch, G. W. Trucks, H. B. Schlegel, G. E. Scuseria, 
 M. A. Robb, J. R. Cheeseman, G. Scalmani, V. Barone, 
 G. A. Petersson, H. Nakatsuji, X. Li, M. Caricato, A. V. Marenich, 
 J. Bloino, B. G. Janesko, R. Gomperts, B. Mennucci, H. P. Hratchian, 
 J. V. Ortiz, A. F. Izmaylov, J. L. Sonnenberg, D. Williams-Young, 
 F. Ding, F. Lipparini, F. Egidi, J. Goings, B. Peng, A. Petrone, 
 T. Henderson, D. Ranasinghe, V. G. Zakrzewski, J. Gao, N. Rega, 
 G. Zheng, W. Liang, M. Hada, M. Ehara, K. Toyota, R. Fukuda, 
 J. Hasegawa, M. Ishida, T. Nakajima, Y. Honda, O. Kitao, H. Nakai, 
 T. Vreven, K. Throssell, J. A. Montgomery, Jr., J. E. Peralta, 
 F. Ogliaro, M. J. Bearpark, J. J. Heyd, E. N. Brothers, K. N. Kudin, 
 V. N. Staroverov, T. A. Keith, R. Kobayashi, J. Normand, 
 K. Raghavachari, A. P. Rendell, J. C. Burant, S. S. Iyengar, 
 J. Tomasi, M. Cossi, J. M. Millam, M. Klene, C. Adamo, R. Cammi, 
 J. W. Ochterski, R. L. Martin, K. Morokuma, O. Farkas, 
 J. B. Foresman, and D. J. Fox, Gaussian, Inc., Wallingford CT, 2016.
 
 ******************************************
 Gaussian 16:  ES64L-G16RevA.03 25-Dec-2016
                11-Aug-2025 
 ******************************************
 %nproc=4
 Will use up to    4 processors via shared memory.
 %oldchk=ZINC000032104853_04_opt.chk
 %chk=ZINC000032104853_04_td.chk
 Copying data from "ZINC000032104853_04_opt.chk" to current chk file "ZINC000032104853_04_td.chk"
 IOpt=  2 FromEx=T IUOpen= 4 IOptOp= 5 NList=   0 IFRang= 0 IUIn= 4 IUOut= 2.
 ----------------------------------------------------------------------
 #p td=(nstates=3,50-50) m062x 3-21g* guess=read geom=check integral=ul
 trafine nosymm
 ----------------------------------------------------------------------
 1/29=2,38=1,172=1/1;
 2/12=2,15=1,40=1/2;
 3/5=5,7=1,11=9,14=-4,25=1,30=1,74=-55,75=-5,116=-2/1,2,3,8;
 4/5=1/1;
 5/5=2,38=6/2;
 8/6=1,10=1,108=3/1;
 9/41=3,42=1,48=2,70=2/14;
 6/7=2,8=2,9=2,10=2/1;
 99/5=1,9=1/99;
 Leave Link    1 at Mon Aug 11 17:45:11 2025, MaxMem=  2147483648 cpu:               0.1 elap:               0.1
 (Enter /opt/apps/pkg/applications/licensed/gaussian/v16/x86_64AVX2/g16/l101.exe)
 -----
 title
 -----
 Structure from the checkpoint file:  "ZINC000032104853_04_td.chk"
 Charge =  0 Multiplicity = 1
 Redundant internal coordinates found in file.  (old form).
 F,0,2.0391432627,-0.40363287,0.7457911679
 C,0,0.69712759,-0.2559423301,0.5630494455
 C,0,0.1646515635,-0.3949103258,-0.7061897002
 C,0,-1.2012413136,-0.2394049076,-0.8943306283
 C,0,-2.0341071102,0.0620166628,0.1868989627
 C,0,-1.474620175,0.1826194008,1.4641655258
 C,0,-0.1114018605,0.0268337566,1.6513292433
 C,0,-3.4819579901,0.2169435261,0.0142342612
 N,0,-4.2926321468,-0.1092502575,0.9961430299
 O,0,-5.6596954221,0.1910146794,0.5183932879
 C,0,-5.53764704,0.6865029291,-0.7573196087
 C,0,-4.1931820694,0.7359794843,-1.1336928763
 C,0,-3.8435971479,1.257585256,-2.378177259
 C,0,-4.8447905874,1.6900076065,-3.231141616
 C,0,-6.1900871973,1.6048090665,-2.8313231905
 C,0,-6.5580184334,1.109458497,-1.5890396842
 O,0,-7.2775617145,2.0105709444,-3.6166182087
 C,0,-7.2192100673,2.5484615136,-4.8895143897
 O,0,-6.1860886476,2.747644116,-5.5072169749
 C,0,-8.575706345,2.840815439,-5.3797750131
 C,0,-9.7254187365,2.5929478206,-4.6334556636
 C,0,-10.9567578754,2.9069493012,-5.1926219653
 C,0,-10.9914024537,3.454420453,-6.4713816777
 N,0,-9.8851952974,3.6972001999,-7.1995457961
 C,0,-8.7012568387,3.3921627746,-6.6541721191
 H,0,0.8178536151,-0.6316568328,-1.5291093439
 H,0,-1.622151374,-0.3837242137,-1.8760223241
 H,0,-2.1209543611,0.4034588791,2.2979066427
 H,0,0.3329691949,0.1242521985,2.6275318156
 H,0,-2.8120882231,1.3455071452,-2.6765685667
 H,0,-4.6156867516,2.097058437,-4.195691359
 H,0,-7.5919412,1.0685809432,-1.2992852749
 H,0,-9.6408890014,2.1675825053,-3.6485789925
 H,0,-11.8726368945,2.7325603576,-4.6520632723
 H,0,-11.934088619,3.7084068496,-6.9314237513
 H,0,-7.8126923317,3.5853509949,-7.2348841265
 Recover connectivity data from disk.
 ITRead=  0  0  0  0  0  0  0  0  0  0  0  0  0  0  0  0  0  0  0  0
 ITRead=  0  0  0  0  0  0  0  0  0  0  0  0  0  0  0  0
 MicOpt= -1 -1 -1 -1 -1 -1 -1 -1 -1 -1 -1 -1 -1 -1 -1 -1 -1 -1 -1 -1
 MicOpt= -1 -1 -1 -1 -1 -1 -1 -1 -1 -1 -1 -1 -1 -1 -1 -1
                           ----------------------------
                           !    Current Parameters    !
                           ! (Angstroms and Degrees)  !
 --------------------------                            --------------------------
 ! Name  Definition              Value                                          !
 --------------------------------------------------------------------------------
 ! R1    R(1,2)                  1.3624                                         !
 ! R2    R(2,3)                  1.3834                                         !
 ! R3    R(2,7)                  1.3849                                         !
 ! R4    R(3,4)                  1.3875                                         !
 ! R5    R(3,26)                 1.077                                          !
 ! R6    R(4,5)                  1.3977                                         !
 ! R7    R(4,27)                 1.0778                                         !
 ! R8    R(5,6)                  1.3996                                         !
 ! R9    R(5,8)                  1.4663                                         !
 ! R10   R(6,7)                  1.3848                                         !
 ! R11   R(6,28)                 1.0778                                         !
 ! R12   R(7,29)                 1.077                                          !
 ! R13   R(8,9)                  1.3144                                         !
 ! R14   R(8,12)                 1.4467                                         !
 ! R15   R(9,10)                 1.4789                                         !
 ! R16   R(10,11)                1.374                                          !
 ! R17   R(11,12)                1.397                                          !
 ! R18   R(11,16)                1.3827                                         !
 ! R19   R(12,13)                1.3939                                         !
 ! R20   R(13,14)                1.3845                                         !
 ! R21   R(13,30)                1.0774                                         !
 ! R22   R(14,15)                1.406                                          !
 ! R23   R(14,31)                1.0717                                         !
 ! R24   R(15,16)                1.3871                                         !
 ! R25   R(15,17)                1.4014                                         !
 ! R26   R(16,32)                1.0745                                         !
 ! R27   R(17,18)                1.3831                                         !
 ! R28   R(18,19)                1.2201                                         !
 ! R29   R(18,20)                1.4717                                         !
 ! R30   R(20,21)                1.3929                                         !
 ! R31   R(20,25)                1.3942                                         !
 ! R32   R(21,22)                1.3883                                         !
 ! R33   R(21,33)                1.0761                                         !
 ! R34   R(22,23)                1.3915                                         !
 ! R35   R(22,34)                1.0777                                         !
 ! R36   R(23,24)                1.3464                                         !
 ! R37   R(23,35)                1.0793                                         !
 ! R38   R(24,25)                1.3387                                         !
 ! R39   R(25,36)                1.0789                                         !
 ! A1    A(1,2,3)              119.4265                                         !
 ! A2    A(1,2,7)              119.4584                                         !
 ! A3    A(3,2,7)              121.1148                                         !
 ! A4    A(2,3,4)              119.4751                                         !
 ! A5    A(2,3,26)             119.3188                                         !
 ! A6    A(4,3,26)             121.2033                                         !
 ! A7    A(3,4,5)              120.3888                                         !
 ! A8    A(3,4,27)             119.5327                                         !
 ! A9    A(5,4,27)             120.0497                                         !
 ! A10   A(4,5,6)              119.0995                                         !
 ! A11   A(4,5,8)              121.337                                          !
 ! A12   A(6,5,8)              119.5418                                         !
 ! A13   A(5,6,7)              120.4745                                         !
 ! A14   A(5,6,28)             118.9385                                         !
 ! A15   A(7,6,28)             120.5863                                         !
 ! A16   A(2,7,6)              119.4373                                         !
 ! A17   A(2,7,29)             119.3306                                         !
 ! A18   A(6,7,29)             121.2319                                         !
 ! A19   A(5,8,9)              119.6562                                         !
 ! A20   A(5,8,12)             128.0802                                         !
 ! A21   A(9,8,12)             112.2452                                         !
 ! A22   A(8,9,10)             106.1644                                         !
 ! A23   A(9,10,11)            106.92                                           !
 ! A24   A(10,11,12)           110.3893                                         !
 ! A25   A(10,11,16)           127.1039                                         !
 ! A26   A(12,11,16)           122.5006                                         !
 ! A27   A(8,12,11)            104.2789                                         !
 ! A28   A(8,12,13)            136.0021                                         !
 ! A29   A(11,12,13)           119.6787                                         !
 ! A30   A(12,13,14)           119.0477                                         !
 ! A31   A(12,13,30)           121.1923                                         !
 ! A32   A(14,13,30)           119.7502                                         !
 ! A33   A(13,14,15)           119.8533                                         !
 ! A34   A(13,14,31)           121.2325                                         !
 ! A35   A(15,14,31)           118.9133                                         !
 ! A36   A(14,15,16)           122.0128                                         !
 ! A37   A(14,15,17)           124.4425                                         !
 ! A38   A(16,15,17)           113.5425                                         !
 ! A39   A(11,16,15)           116.8863                                         !
 ! A40   A(11,16,32)           122.4275                                         !
 ! A41   A(15,16,32)           120.6851                                         !
 ! A42   A(15,17,18)           126.5535                                         !
 ! A43   A(17,18,19)           124.413                                          !
 ! A44   A(17,18,20)           110.1786                                         !
 ! A45   A(19,18,20)           125.4083                                         !
 ! A46   A(18,20,21)           123.1575                                         !
 ! A47   A(18,20,25)           117.7785                                         !
 ! A48   A(21,20,25)           119.064                                          !
 ! A49   A(20,21,22)           118.4253                                         !
 ! A50   A(20,21,33)           119.7263                                         !
 ! A51   A(22,21,33)           121.8484                                         !
 ! A52   A(21,22,23)           118.7646                                         !
 ! A53   A(21,22,34)           121.0059                                         !
 ! A54   A(23,22,34)           120.2296                                         !
 ! A55   A(22,23,24)           123.1957                                         !
 ! A56   A(22,23,35)           120.4026                                         !
 ! A57   A(24,23,35)           116.4017                                         !
 ! A58   A(23,24,25)           117.7225                                         !
 ! A59   A(20,25,24)           122.8279                                         !
 ! A60   A(20,25,36)           119.2499                                         !
 ! A61   A(24,25,36)           117.9222                                         !
 ! D1    D(1,2,3,4)           -179.7428                                         !
 ! D2    D(1,2,3,26)             0.8549                                         !
 ! D3    D(7,2,3,4)              0.4483                                         !
 ! D4    D(7,2,3,26)          -178.954                                          !
 ! D5    D(1,2,7,6)            179.7205                                         !
 ! D6    D(1,2,7,29)            -0.1051                                         !
 ! D7    D(3,2,7,6)             -0.4707                                         !
 ! D8    D(3,2,7,29)           179.7037                                         !
 ! D9    D(2,3,4,5)              0.3252                                         !
 ! D10   D(2,3,4,27)          -177.7255                                         !
 ! D11   D(26,3,4,5)           179.7159                                         !
 ! D12   D(26,3,4,27)            1.6652                                         !
 ! D13   D(3,4,5,6)             -1.0539                                         !
 ! D14   D(3,4,5,8)           -179.3508                                         !
 ! D15   D(27,4,5,6)           176.9868                                         !
 ! D16   D(27,4,5,8)            -1.3101                                         !
 ! D17   D(4,5,6,7)              1.032                                          !
 ! D18   D(4,5,6,28)          -179.2756                                         !
 ! D19   D(8,5,6,7)            179.36                                           !
 ! D20   D(8,5,6,28)            -0.9476                                         !
 ! D21   D(4,5,8,9)            148.7481                                         !
 ! D22   D(4,5,8,12)           -32.9371                                         !
 ! D23   D(6,5,8,9)            -29.5414                                         !
 ! D24   D(6,5,8,12)           148.7734                                         !
 ! D25   D(5,6,7,2)             -0.2801                                         !
 ! D26   D(5,6,7,29)           179.5421                                         !
 ! D27   D(28,6,7,2)          -179.9674                                         !
 ! D28   D(28,6,7,29)           -0.1451                                         !
 ! D29   D(5,8,9,10)           178.7404                                         !
 ! D30   D(12,8,9,10)            0.1734                                         !
 ! D31   D(5,8,12,11)         -178.819                                          !
 ! D32   D(5,8,12,13)           -1.2625                                         !
 ! D33   D(9,8,12,11)           -0.4011                                         !
 ! D34   D(9,8,12,13)          177.1553                                         !
 ! D35   D(8,9,10,11)            0.1268                                         !
 ! D36   D(9,10,11,12)          -0.3866                                         !
 ! D37   D(9,10,11,16)        -179.4891                                         !
 ! D38   D(10,11,12,8)           0.4738                                         !
 ! D39   D(10,11,12,13)       -177.5728                                         !
 ! D40   D(16,11,12,8)         179.6251                                         !
 ! D41   D(16,11,12,13)          1.5785                                         !
 ! D42   D(10,11,16,15)        178.4784                                         !
 ! D43   D(10,11,16,32)         -1.1547                                         !
 ! D44   D(12,11,16,15)         -0.5241                                         !
 ! D45   D(12,11,16,32)        179.8428                                         !
 ! D46   D(8,12,13,14)        -178.7209                                         !
 ! D47   D(8,12,13,30)           0.1368                                         !
 ! D48   D(11,12,13,14)         -1.4467                                         !
 ! D49   D(11,12,13,30)        177.411                                          !
 ! D50   D(12,13,14,15)          0.3412                                         !
 ! D51   D(12,13,14,31)        179.9858                                         !
 ! D52   D(30,13,14,15)       -178.5333                                         !
 ! D53   D(30,13,14,31)          1.1112                                         !
 ! D54   D(13,14,15,16)          0.7236                                         !
 ! D55   D(13,14,15,17)       -179.8598                                         !
 ! D56   D(31,14,15,16)       -178.9292                                         !
 ! D57   D(31,14,15,17)          0.4874                                         !
 ! D58   D(14,15,16,11)         -0.6286                                         !
 ! D59   D(14,15,16,32)        179.0114                                         !
 ! D60   D(17,15,16,11)        179.8963                                         !
 ! D61   D(17,15,16,32)         -0.4638                                         !
 ! D62   D(14,15,17,18)          0.1613                                         !
 ! D63   D(16,15,17,18)        179.6216                                         !
 ! D64   D(15,17,18,19)         -0.2232                                         !
 ! D65   D(15,17,18,20)        179.7888                                         !
 ! D66   D(17,18,20,21)         -0.0633                                         !
 ! D67   D(17,18,20,25)        179.9378                                         !
 ! D68   D(19,18,20,21)        179.9488                                         !
 ! D69   D(19,18,20,25)         -0.0501                                         !
 ! D70   D(18,20,21,22)       -179.9969                                         !
 ! D71   D(18,20,21,33)         -0.0012                                         !
 ! D72   D(25,20,21,22)          0.002                                          !
 ! D73   D(25,20,21,33)        179.9977                                         !
 ! D74   D(18,20,25,24)        179.9887                                         !
 ! D75   D(18,20,25,36)          0.0016                                         !
 ! D76   D(21,20,25,24)         -0.0103                                         !
 ! D77   D(21,20,25,36)       -179.9973                                         !
 ! D78   D(20,21,22,23)          0.0051                                         !
 ! D79   D(20,21,22,34)       -179.9975                                         !
 ! D80   D(33,21,22,23)       -179.9905                                         !
 ! D81   D(33,21,22,34)          0.0069                                         !
 ! D82   D(21,22,23,24)         -0.0049                                         !
 ! D83   D(21,22,23,35)        179.998                                          !
 ! D84   D(34,22,23,24)        179.9977                                         !
 ! D85   D(34,22,23,35)          0.0006                                         !
 ! D86   D(22,23,24,25)         -0.0029                                         !
 ! D87   D(35,23,24,25)        179.9943                                         !
 ! D88   D(23,24,25,20)          0.0106                                         !
 ! D89   D(23,24,25,36)        179.9978                                         !
 --------------------------------------------------------------------------------
 NAtoms=     36 NQM=       36 NQMF=       0 NMMI=      0 NMMIF=      0
                NMic=       0 NMicF=      0.
                    Isotopes and Nuclear Properties:
 (Nuclear quadrupole moments (NQMom) in fm**2, nuclear magnetic moments (NMagM)
  in nuclear magnetons)

  Atom         1           2           3           4           5           6           7           8           9          10
 IAtWgt=          19          12          12          12          12          12          12          12          14          16
 AtmWgt=  18.9984032  12.0000000  12.0000000  12.0000000  12.0000000  12.0000000  12.0000000  12.0000000  14.0030740  15.9949146
 NucSpn=           1           0           0           0           0           0           0           0           2           0
 AtZEff=   6.7500000   3.6000000   3.6000000   3.6000000   3.6000000   3.6000000   3.6000000   3.6000000   4.5500000   5.6000000
 NQMom=    0.0000000   0.0000000   0.0000000   0.0000000   0.0000000   0.0000000   0.0000000   0.0000000   2.0440000   0.0000000
 NMagM=    2.6288670   0.0000000   0.0000000   0.0000000   0.0000000   0.0000000   0.0000000   0.0000000   0.4037610   0.0000000
 AtZNuc=   9.0000000   6.0000000   6.0000000   6.0000000   6.0000000   6.0000000   6.0000000   6.0000000   7.0000000   8.0000000

  Atom        11          12          13          14          15          16          17          18          19          20
 IAtWgt=          12          12          12          12          12          12          16          12          16          12
 AtmWgt=  12.0000000  12.0000000  12.0000000  12.0000000  12.0000000  12.0000000  15.9949146  12.0000000  15.9949146  12.0000000
 NucSpn=           0           0           0           0           0           0           0           0           0           0
 AtZEff=   3.6000000   3.6000000   3.6000000   3.6000000   3.6000000   3.6000000   5.6000000   3.6000000   5.6000000   3.6000000
 NQMom=    0.0000000   0.0000000   0.0000000   0.0000000   0.0000000   0.0000000   0.0000000   0.0000000   0.0000000   0.0000000
 NMagM=    0.0000000   0.0000000   0.0000000   0.0000000   0.0000000   0.0000000   0.0000000   0.0000000   0.0000000   0.0000000
 AtZNuc=   6.0000000   6.0000000   6.0000000   6.0000000   6.0000000   6.0000000   8.0000000   6.0000000   8.0000000   6.0000000

  Atom        21          22          23          24          25          26          27          28          29          30
 IAtWgt=          12          12          12          14          12           1           1           1           1           1
 AtmWgt=  12.0000000  12.0000000  12.0000000  14.0030740  12.0000000   1.0078250   1.0078250   1.0078250   1.0078250   1.0078250
 NucSpn=           0           0           0           2           0           1           1           1           1           1
 AtZEff=   3.6000000   3.6000000   3.6000000   4.5500000   3.6000000   1.0000000   1.0000000   1.0000000   1.0000000   1.0000000
 NQMom=    0.0000000   0.0000000   0.0000000   2.0440000   0.0000000   0.0000000   0.0000000   0.0000000   0.0000000   0.0000000
 NMagM=    0.0000000   0.0000000   0.0000000   0.4037610   0.0000000   2.7928460   2.7928460   2.7928460   2.7928460   2.7928460
 AtZNuc=   6.0000000   6.0000000   6.0000000   7.0000000   6.0000000   1.0000000   1.0000000   1.0000000   1.0000000   1.0000000

  Atom        31          32          33          34          35          36
 IAtWgt=           1           1           1           1           1           1
 AtmWgt=   1.0078250   1.0078250   1.0078250   1.0078250   1.0078250   1.0078250
 NucSpn=           1           1           1           1           1           1
 AtZEff=   1.0000000   1.0000000   1.0000000   1.0000000   1.0000000   1.0000000
 NQMom=    0.0000000   0.0000000   0.0000000   0.0000000   0.0000000   0.0000000
 NMagM=    2.7928460   2.7928460   2.7928460   2.7928460   2.7928460   2.7928460
 AtZNuc=   1.0000000   1.0000000   1.0000000   1.0000000   1.0000000   1.0000000
 Leave Link  101 at Mon Aug 11 17:45:11 2025, MaxMem=  2147483648 cpu:               0.5 elap:               0.1
 (Enter /opt/apps/pkg/applications/licensed/gaussian/v16/x86_64AVX2/g16/l202.exe)
                          Input orientation:                          
 ---------------------------------------------------------------------
 Center     Atomic      Atomic             Coordinates (Angstroms)
 Number     Number       Type             X           Y           Z
 ---------------------------------------------------------------------
      1          9           0        2.039143   -0.403633    0.745791
      2          6           0        0.697128   -0.255942    0.563049
      3          6           0        0.164652   -0.394910   -0.706190
      4          6           0       -1.201241   -0.239405   -0.894331
      5          6           0       -2.034107    0.062017    0.186899
      6          6           0       -1.474620    0.182619    1.464166
      7          6           0       -0.111402    0.026834    1.651329
      8          6           0       -3.481958    0.216944    0.014234
      9          7           0       -4.292632   -0.109250    0.996143
     10          8           0       -5.659695    0.191015    0.518393
     11          6           0       -5.537647    0.686503   -0.757320
     12          6           0       -4.193182    0.735979   -1.133693
     13          6           0       -3.843597    1.257585   -2.378177
     14          6           0       -4.844791    1.690008   -3.231142
     15          6           0       -6.190087    1.604809   -2.831323
     16          6           0       -6.558018    1.109458   -1.589040
     17          8           0       -7.277562    2.010571   -3.616618
     18          6           0       -7.219210    2.548462   -4.889514
     19          8           0       -6.186089    2.747644   -5.507217
     20          6           0       -8.575706    2.840815   -5.379775
     21          6           0       -9.725419    2.592948   -4.633456
     22          6           0      -10.956758    2.906949   -5.192622
     23          6           0      -10.991402    3.454420   -6.471382
     24          7           0       -9.885195    3.697200   -7.199546
     25          6           0       -8.701257    3.392163   -6.654172
     26          1           0        0.817854   -0.631657   -1.529109
     27          1           0       -1.622151   -0.383724   -1.876022
     28          1           0       -2.120954    0.403459    2.297907
     29          1           0        0.332969    0.124252    2.627532
     30          1           0       -2.812088    1.345507   -2.676569
     31          1           0       -4.615687    2.097058   -4.195691
     32          1           0       -7.591941    1.068581   -1.299285
     33          1           0       -9.640889    2.167583   -3.648579
     34          1           0      -11.872637    2.732560   -4.652063
     35          1           0      -11.934089    3.708407   -6.931424
     36          1           0       -7.812692    3.585351   -7.234884
 ---------------------------------------------------------------------
                    Distance matrix (angstroms):
                    1          2          3          4          5
     1  F    0.000000
     2  C    1.362429   0.000000
     3  C    2.371085   1.383406   0.000000
     4  C    3.635528   2.393331   1.387531   0.000000
     5  C    4.137700   2.775289   2.416801   1.397704   0.000000
     6  C    3.634046   2.391827   2.780503   2.411503   1.399636
     7  C    2.372793   1.384931   2.410803   2.781909   2.417145
     8  C    5.603825   4.241412   3.767113   2.497081   1.466318
     9  N    6.343557   5.010668   4.779845   3.625952   2.405233
    10  O    7.725117   6.372673   5.980462   4.696686   3.642996
    11  C    7.800993   6.442359   5.804160   4.436270   3.681891
    12  C    6.608559   5.270481   4.522431   3.156007   2.619121
    13  C    6.864799   5.617808   4.646756   3.380063   3.359056
    14  C    8.221184   6.992529   5.984712   4.739068   4.715220
    15  C    9.195098   7.900499   6.992694   5.660534   5.363026
    16  C    9.036153   7.689795   6.945275   5.567505   4.971606
    17  O   10.566929   9.284523   8.345266   7.028151   6.764423
    18  C   11.233372  10.013168   8.982486   7.742715   7.670572
    19  O   10.802088   9.656518   8.559054   7.419561   7.541519
    20  C   12.677698  11.440827  10.426225   9.164590   9.027851
    21  C   13.278581  11.989550  11.052792   9.729588   9.423253
    22  C   14.666907  13.377021  12.438493  11.115078  10.800305
    23  C   15.387244  14.137600  13.134395  11.857280  11.665087
    24  N   14.904196  13.706596  12.645492  11.430820  11.376015
    25  C   13.583951  12.398653  11.328051  10.129871  10.116373
    26  H    2.592049   2.129053   1.076995   2.152568   3.399933
    27  H    4.503263   3.368153   2.135720   1.077827   2.150357
    28  H    4.512967   3.374333   3.858236   3.383715   2.140205
    29  H    2.594348   2.130551   3.378100   3.858700   3.400531
    30  H    6.189223   5.037297   3.971451   2.878046   3.232963
    31  H    8.657856   7.510541   6.421695   5.293060   5.478416
    32  H    9.955277   8.598332   7.915700   6.535737   5.840500
    33  H   12.741460  11.423041  10.553324   9.198213   8.775388
    34  H   15.248284  13.932966  13.047885  11.697513  11.284681
    35  H   16.465106  15.212850  14.211624  12.931578  12.726992
    36  H   13.291420  12.164717  11.050084   9.926866  10.044342
                    6          7          8          9         10
     6  C    0.000000
     7  C    1.384797   0.000000
     8  C    2.476466   3.751916   0.000000
     9  N    2.871485   4.234439   1.314435   0.000000
    10  O    4.290619   5.665162   2.235484   1.478941   0.000000
    11  C    4.658013   5.973348   2.245359   2.293015   1.373990
    12  C    3.800744   4.992010   1.446712   2.293579   2.275310
    13  C    4.640173   5.628584   2.633885   3.668230   3.581328
    14  C    5.972954   7.000688   3.815717   4.627326   4.119473
    15  C    6.535249   7.715866   4.166213   4.603024   3.674334
    16  C    6.001836   7.295953   3.581790   3.646971   2.468157
    17  O    7.926531   9.112647   5.550387   5.889059   4.798604
    18  C    8.886325   9.983095   6.591645   7.090081   6.102058
    19  O    8.796446   9.774938   6.648548   7.351239   6.566690
    20  C   10.214252  11.357789   7.869327   8.227998   7.093162
    21  C   10.538802  11.769145   8.138011   8.277042   6.988629
    22  C   11.901501  13.143686   9.498427   9.581693   8.249295
    23  C   12.815878  14.003614  10.437252  10.645994   9.377306
    24  N   12.575768  13.687097  10.254377  10.627095   9.471788
    25  C   11.332822  12.413396   9.043823   9.498589   8.422834
    26  H    3.857224   3.378212   4.646548   5.724236   6.843077
    27  H    3.391071   3.859162   2.718962   3.931429   4.729198
    28  H    1.077795   2.144344   2.665010   2.583340   3.966672
    29  H    2.150397   1.076999   4.625104   4.910411   6.353342
    30  H    4.504088   5.269090   2.993794   4.218666   4.432776
    31  H    6.750212   7.665642   4.748015   5.650425   5.190910
    32  H    6.770761   8.108627   4.398020   4.188283   2.794218
    33  H    9.837082  11.112289   7.426549   7.440515   6.092650
    34  H   12.330012  13.615446   9.925027   9.870896   8.473117
    35  H   13.867861  15.066305  11.483510  11.653870  10.355667
    36  H   11.288189  12.285671   9.091268   9.684560   8.733283
                   11         12         13         14         15
    11  C    0.000000
    12  C    1.397029   0.000000
    13  C    2.413114   1.393924   0.000000
    14  C    2.758055   2.394589   1.384531   0.000000
    15  C    2.360181   2.761240   2.414937   1.406036   0.000000
    16  C    1.382681   2.437063   2.830682   2.443089   1.387088
    17  O    3.599451   4.159675   3.727309   2.483894   1.401404
    18  C    4.834209   5.152488   4.400902   3.020763   2.487112
    19  O    5.218266   5.210200   4.183113   2.845733   2.909724
    20  C    5.936157   6.454926   5.823149   4.456536   3.703174
    21  C    6.016344   6.804580   6.439355   5.157743   4.089336
    22  C    7.346363   8.181319   7.825507   6.533337   5.476536
    23  C    8.369906   9.060720   8.524760   7.168901   6.302675
    24  N    8.334732   8.829633   8.105444   6.721810   6.092068
    25  C    7.218164   7.606165   6.814500   5.430175   4.910680
    26  H    6.536482   5.209344   5.100909   6.352368   7.470527
    27  H    4.210462   2.900860   2.807290   4.064741   5.072761
    28  H    4.592201   4.022508   5.055966   6.296417   6.656582
    29  H    6.799815   5.916677   6.617044   7.974010   8.633737
    30  H    3.398010   2.158567   1.077394   2.134973   3.391469
    31  H    3.829109   3.377407   2.145739   1.071697   2.140688
    32  H    2.158665   3.419007   3.905101   3.415417   2.144732
    33  H    5.233505   6.168602   6.004216   4.837860   3.590634
    34  H    7.712812   8.679821   8.474172   7.245451   6.072750
    35  H    9.389671  10.117838   9.601804   8.247677   7.364068
    36  H    7.452382   7.644888   6.690277   5.332047   5.093795
                   16         17         18         19         20
    16  C    0.000000
    17  O    2.332557   0.000000
    18  C    3.660743   1.383111   0.000000
    19  O    4.263109   2.304117   1.220070   0.000000
    20  C    4.630155   2.341625   1.471703   2.394827   0.000000
    21  C    4.636985   2.713876   2.519648   3.648869   1.392936
    22  C    5.963697   4.101678   3.766915   4.783684   2.389311
    23  C    6.999357   4.901733   4.189571   4.951786   2.720975
    24  N    7.017428   4.741502   3.709895   4.177203   2.399942
    25  C    5.954811   3.628007   2.454040   2.838482   1.394215
    26  H    7.578823   8.767828   9.273611   8.735000  10.729616
    27  H    5.164759   6.383259   7.000422   6.619710   8.427684
    28  H    5.940903   8.009682   9.069304   9.107166  10.322370
    29  H    8.138539  10.023362  10.927863  10.749625  12.282556
    30  H    3.907740   4.611557   5.076116   4.621952   6.539309
    31  H    3.397446   2.725506   2.731939   2.146980   4.199641
    32  H    1.074535   2.521153   3.901118   4.743666   4.556205
    33  H    3.855570   2.368753   2.747639   3.965684   2.141237
    34  H    6.345214   4.765305   4.663117   5.750508   3.378022
    35  H    8.012349   5.962703   5.267347   5.999244   3.799876
    36  H    6.291249   3.982229   2.632132   2.516431   2.139615
                   21         22         23         24         25
    21  C    0.000000
    22  C    1.388330   0.000000
    23  C    2.392242   1.391457   0.000000
    24  N    2.798164   2.408420   1.346425   0.000000
    25  C    2.402280   2.731089   2.298272   1.338727   0.000000
    26  H   11.454066  12.829050  13.438029  12.862663  11.535634
    27  H    9.062392  10.438546  11.118972  10.642920   9.338189
    28  H   10.519768  11.851030  12.841092  12.701723  11.505323
    29  H   12.648619  14.012714  14.903746  14.620133  13.358387
    30  H    7.292438   8.666272   9.260092   8.718751   7.395433
    31  H    5.152369   6.469851   6.904415   6.273063   4.940982
    32  H    4.241711   5.464399   6.633185   6.854322   5.941753
    33  H    1.076133   2.159223   3.383497   3.874117   3.378771
    34  H    2.151833   1.077706   2.146526   3.371961   3.808040
    35  H    3.376852   2.149637   1.079261   2.066393   3.260074
    36  H    3.377990   3.810015   3.271739   2.075820   1.078932
                   26         27         28         29         30
    26  H    0.000000
    27  H    2.476983   0.000000
    28  H    4.934988   4.276698   0.000000
    29  H    4.252549   4.935842   2.491656   0.000000
    30  H    4.289792   2.246567   5.109846   6.286202   0.000000
    31  H    6.639270   4.527295   7.159524   8.656647   2.474981
    32  H    8.583023   6.170916   6.581328   8.894709   4.982027
    33  H   11.032370   8.599493   9.747935  11.960042   6.946447
    34  H   13.495160  11.067524  12.199267  14.448965   9.376569
    35  H   14.513207  12.191746  13.870862  15.959339  10.339148
    36  H   11.172526   9.099107  11.549650  13.251349   7.127495
                   31         32         33         34         35
    31  H    0.000000
    32  H    4.278437   0.000000
    33  H    5.055390   3.305325   0.000000
    34  H    7.299004   5.686326   2.511350   0.000000
    35  H    7.977448   7.585770   4.290685   2.480229   0.000000
    36  H    4.655379   6.450907   4.267781   4.886856   4.134385
                   36
    36  H    0.000000
 Symmetry turned off by external request.
 Stoichiometry    C19H11FN2O3
 Framework group  C1[X(C19H11FN2O3)]
 Deg. of freedom   102
 Full point group                 C1      NOp   1
 Rotational constants (GHZ):           0.8093544           0.0695778           0.0644474
 Leave Link  202 at Mon Aug 11 17:45:11 2025, MaxMem=  2147483648 cpu:               0.0 elap:               0.0
 (Enter /opt/apps/pkg/applications/licensed/gaussian/v16/x86_64AVX2/g16/l301.exe)
 Standard basis: 3-21G* (6D, 7F)
 Ernie: Thresh=  0.10000D-02 Tol=  0.10000D-05 Strict=F.
   247 basis functions,   408 primitive gaussians,   247 cartesian basis functions
    86 alpha electrons       86 beta electrons
       nuclear repulsion energy      1875.9959628115 Hartrees.
 IExCor= 4336 DFT=T Ex+Corr=M062X ExCW=0 ScaHFX=  0.540000
 ScaDFX=  1.000000  1.000000  1.000000  1.000000 ScalE2=  1.000000  1.000000
 IRadAn=      5 IRanWt=     -1 IRanGd=            0 ICorTp=0 IEmpDi=  4
 NAtoms=   36 NActive=   36 NUniq=   36 SFac= 1.00D+00 NAtFMM=   60 NAOKFM=F Big=F
 Integral buffers will be    131072 words long.
 Regular integral format.
 Two-electron integral symmetry is turned off.
 Leave Link  301 at Mon Aug 11 17:45:11 2025, MaxMem=  2147483648 cpu:               0.1 elap:               0.0
 (Enter /opt/apps/pkg/applications/licensed/gaussian/v16/x86_64AVX2/g16/l302.exe)
 NPDir=0 NMtPBC=     1 NCelOv=     1 NCel=       1 NClECP=     1 NCelD=      1
         NCelK=      1 NCelE2=     1 NClLst=     1 CellRange=     0.0.
 One-electron integrals computed using PRISM.
 NBasis=   247 RedAO= T EigKep=  1.36D-03  NBF=   247
 NBsUse=   247 1.00D-06 EigRej= -1.00D+00 NBFU=   247
 Precomputing XC quadrature grid using
 IXCGrd= 4 IRadAn=           5 IRanWt=          -1 IRanGd=           0 AccXCQ= 0.00D+00.
 Generated NRdTot=       0 NPtTot=           0 NUsed=           0 NTot=          32
 NSgBfM=   229   229   229   229   229 MxSgAt=    36 MxSgA2=    36.
 Leave Link  302 at Mon Aug 11 17:45:12 2025, MaxMem=  2147483648 cpu:               1.9 elap:               0.6
 (Enter /opt/apps/pkg/applications/licensed/gaussian/v16/x86_64AVX2/g16/l303.exe)
 DipDrv:  MaxL=1.
 Leave Link  303 at Mon Aug 11 17:45:12 2025, MaxMem=  2147483648 cpu:               0.2 elap:               0.1
 (Enter /opt/apps/pkg/applications/licensed/gaussian/v16/x86_64AVX2/g16/l308.exe)
 Leave Link  308 at Mon Aug 11 17:45:12 2025, MaxMem=  2147483648 cpu:               0.1 elap:               0.0
 (Enter /opt/apps/pkg/applications/licensed/gaussian/v16/x86_64AVX2/g16/l401.exe)
 Initial guess from the checkpoint file:  "ZINC000032104853_04_td.chk"
 B after Tr=     0.000000    0.000000    0.000000
         Rot=    1.000000    0.000000    0.000000    0.000000 Ang=   0.00 deg.
 Guess basis will be translated and rotated to current coordinates.
 JPrj=2 DoOrth=T DoCkMO=T.
 Leave Link  401 at Mon Aug 11 17:45:12 2025, MaxMem=  2147483648 cpu:               0.4 elap:               0.1
 (Enter /opt/apps/pkg/applications/licensed/gaussian/v16/x86_64AVX2/g16/l502.exe)
 Two-electron integral symmetry not used.
 Closed shell SCF:
 Using DIIS extrapolation, IDIIS=  1040.
 NGot=  2147483648 LenX=  2147357697 LenY=  2147296247
 Requested convergence on RMS density matrix=1.00D-08 within 128 cycles.
 Requested convergence on MAX density matrix=1.00D-06.
 Requested convergence on             energy=1.00D-06.
 No special actions if energy rises.
 Fock matrices will be formed incrementally for  20 cycles.

 Cycle   1  Pass 1  IDiag  1:
 FoFJK:  IHMeth= 1 ICntrl=       0 DoSepK=F KAlg= 0 I1Cent=           0 FoldK=F
 IRaf= 580000000 NMat=       1 IRICut=       1 DoRegI=T DoRafI=F ISym2E= 0 IDoP0=0 IntGTp=1.
 FoFCou: FMM=F IPFlag=           0 FMFlag=      100000 FMFlg1=           0
         NFxFlg=           0 DoJE=F BraDBF=F KetDBF=F FulRan=T
         wScrn=  0.000000 ICntrl=         0 IOpCl=  0 I1Cent=           0 NGrid=           0
         NMat0=    1 NMatS0=      1 NMatT0=    0 NMatD0=    1 NMtDS0=    0 NMtDT0=    0
 Symmetry not used in FoFCou.
 E= -1158.72840561163    
 DIIS: error= 6.69D-03 at cycle   1 NSaved=   1.
 NSaved= 1 IEnMin= 1 EnMin= -1158.72840561163     IErMin= 1 ErrMin= 6.69D-03
 ErrMax= 6.69D-03  0.00D+00 EMaxC= 1.00D-01 BMatC= 2.45D-02 BMatP= 2.45D-02
 IDIUse=3 WtCom= 9.33D-01 WtEn= 6.69D-02
 Coeff-Com:  0.100D+01
 Coeff-En:   0.100D+01
 Coeff:      0.100D+01
 Gap=     0.253 Goal=   None    Shift=    0.000
 GapD=    0.253 DampG=1.000 DampE=1.000 DampFc=1.0000 IDamp=-1.
 RMSDP=9.46D-04 MaxDP=2.90D-02              OVMax= 1.30D-02

 Cycle   2  Pass 1  IDiag  1:
 RMSU=  9.11D-04    CP:  9.92D-01
 E= -1158.73666376508     Delta-E=       -0.008258153458 Rises=F Damp=F
 DIIS: error= 3.74D-03 at cycle   2 NSaved=   2.
 NSaved= 2 IEnMin= 2 EnMin= -1158.73666376508     IErMin= 2 ErrMin= 3.74D-03
 ErrMax= 3.74D-03  0.00D+00 EMaxC= 1.00D-01 BMatC= 2.90D-03 BMatP= 2.45D-02
 IDIUse=3 WtCom= 9.63D-01 WtEn= 3.74D-02
 Coeff-Com:  0.166D+00 0.834D+00
 Coeff-En:   0.000D+00 0.100D+01
 Coeff:      0.160D+00 0.840D+00
 Gap=     0.254 Goal=   None    Shift=    0.000
 RMSDP=3.50D-04 MaxDP=1.08D-02 DE=-8.26D-03 OVMax= 1.13D-02

 Cycle   3  Pass 1  IDiag  1:
 RMSU=  3.40D-04    CP:  9.90D-01  9.30D-01
 E= -1158.73735989907     Delta-E=       -0.000696133983 Rises=F Damp=F
 DIIS: error= 2.52D-03 at cycle   3 NSaved=   3.
 NSaved= 3 IEnMin= 3 EnMin= -1158.73735989907     IErMin= 3 ErrMin= 2.52D-03
 ErrMax= 2.52D-03  0.00D+00 EMaxC= 1.00D-01 BMatC= 1.65D-03 BMatP= 2.90D-03
 IDIUse=3 WtCom= 9.75D-01 WtEn= 2.52D-02
 Coeff-Com:  0.468D-02 0.427D+00 0.568D+00
 Coeff-En:   0.000D+00 0.377D+00 0.623D+00
 Coeff:      0.456D-02 0.426D+00 0.570D+00
 Gap=     0.254 Goal=   None    Shift=    0.000
 RMSDP=1.97D-04 MaxDP=5.85D-03 DE=-6.96D-04 OVMax= 8.04D-03

 Cycle   4  Pass 1  IDiag  1:
 RMSU=  9.37D-05    CP:  9.90D-01  9.95D-01  5.26D-01
 E= -1158.73838291292     Delta-E=       -0.001023013855 Rises=F Damp=F
 DIIS: error= 5.96D-04 at cycle   4 NSaved=   4.
 NSaved= 4 IEnMin= 4 EnMin= -1158.73838291292     IErMin= 4 ErrMin= 5.96D-04
 ErrMax= 5.96D-04  0.00D+00 EMaxC= 1.00D-01 BMatC= 1.17D-04 BMatP= 1.65D-03
 IDIUse=3 WtCom= 9.94D-01 WtEn= 5.96D-03
 Coeff-Com: -0.563D-02 0.170D+00 0.307D+00 0.529D+00
 Coeff-En:   0.000D+00 0.000D+00 0.000D+00 0.100D+01
 Coeff:     -0.559D-02 0.169D+00 0.305D+00 0.532D+00
 Gap=     0.254 Goal=   None    Shift=    0.000
 RMSDP=5.70D-05 MaxDP=2.17D-03 DE=-1.02D-03 OVMax= 2.23D-03

 Cycle   5  Pass 1  IDiag  1:
 RMSU=  2.85D-05    CP:  9.90D-01  9.89D-01  6.01D-01  5.61D-01
 E= -1158.73848280867     Delta-E=       -0.000099895744 Rises=F Damp=F
 DIIS: error= 1.58D-04 at cycle   5 NSaved=   5.
 NSaved= 5 IEnMin= 5 EnMin= -1158.73848280867     IErMin= 5 ErrMin= 1.58D-04
 ErrMax= 1.58D-04  0.00D+00 EMaxC= 1.00D-01 BMatC= 5.90D-06 BMatP= 1.17D-04
 IDIUse=3 WtCom= 9.98D-01 WtEn= 1.58D-03
 Coeff-Com: -0.299D-02 0.608D-01 0.124D+00 0.270D+00 0.548D+00
 Coeff-En:   0.000D+00 0.000D+00 0.000D+00 0.000D+00 0.100D+01
 Coeff:     -0.299D-02 0.608D-01 0.124D+00 0.269D+00 0.549D+00
 Gap=     0.254 Goal=   None    Shift=    0.000
 RMSDP=1.14D-05 MaxDP=3.00D-04 DE=-9.99D-05 OVMax= 4.78D-04

 Cycle   6  Pass 1  IDiag  1:
 RMSU=  7.83D-06    CP:  9.90D-01  9.92D-01  6.02D-01  6.07D-01  7.65D-01
 E= -1158.73848741892     Delta-E=       -0.000004610248 Rises=F Damp=F
 DIIS: error= 4.53D-05 at cycle   6 NSaved=   6.
 NSaved= 6 IEnMin= 6 EnMin= -1158.73848741892     IErMin= 6 ErrMin= 4.53D-05
 ErrMax= 4.53D-05  0.00D+00 EMaxC= 1.00D-01 BMatC= 2.56D-07 BMatP= 5.90D-06
 IDIUse=1 WtCom= 1.00D+00 WtEn= 0.00D+00
 Coeff-Com: -0.224D-04-0.696D-02-0.962D-02-0.509D-02 0.147D+00 0.875D+00
 Coeff:     -0.224D-04-0.696D-02-0.962D-02-0.509D-02 0.147D+00 0.875D+00
 Gap=     0.254 Goal=   None    Shift=    0.000
 RMSDP=3.72D-06 MaxDP=6.55D-05 DE=-4.61D-06 OVMax= 1.60D-04

 Cycle   7  Pass 1  IDiag  1:
 RMSU=  2.89D-06    CP:  9.90D-01  9.92D-01  6.03D-01  6.17D-01  8.35D-01
                    CP:  9.33D-01
 E= -1158.73848773597     Delta-E=       -0.000000317055 Rises=F Damp=F
 DIIS: error= 1.70D-05 at cycle   7 NSaved=   7.
 NSaved= 7 IEnMin= 7 EnMin= -1158.73848773597     IErMin= 7 ErrMin= 1.70D-05
 ErrMax= 1.70D-05  0.00D+00 EMaxC= 1.00D-01 BMatC= 5.17D-08 BMatP= 2.56D-07
 IDIUse=1 WtCom= 1.00D+00 WtEn= 0.00D+00
 Coeff-Com:  0.248D-03-0.816D-02-0.147D-01-0.256D-01 0.252D-01 0.400D+00
 Coeff-Com:  0.623D+00
 Coeff:      0.248D-03-0.816D-02-0.147D-01-0.256D-01 0.252D-01 0.400D+00
 Coeff:      0.623D+00
 Gap=     0.254 Goal=   None    Shift=    0.000
 RMSDP=1.32D-06 MaxDP=3.80D-05 DE=-3.17D-07 OVMax= 9.42D-05

 Cycle   8  Pass 1  IDiag  1:
 RMSU=  1.16D-06    CP:  9.90D-01  9.92D-01  6.03D-01  6.18D-01  8.49D-01
                    CP:  9.87D-01  9.16D-01
 E= -1158.73848778987     Delta-E=       -0.000000053903 Rises=F Damp=F
 DIIS: error= 7.98D-06 at cycle   8 NSaved=   8.
 NSaved= 8 IEnMin= 8 EnMin= -1158.73848778987     IErMin= 8 ErrMin= 7.98D-06
 ErrMax= 7.98D-06  0.00D+00 EMaxC= 1.00D-01 BMatC= 8.75D-09 BMatP= 5.17D-08
 IDIUse=1 WtCom= 1.00D+00 WtEn= 0.00D+00
 Coeff-Com:  0.969D-04-0.153D-02-0.342D-02-0.908D-02-0.195D-01-0.422D-01
 Coeff-Com:  0.265D+00 0.810D+00
 Coeff:      0.969D-04-0.153D-02-0.342D-02-0.908D-02-0.195D-01-0.422D-01
 Coeff:      0.265D+00 0.810D+00
 Gap=     0.254 Goal=   None    Shift=    0.000
 RMSDP=7.54D-07 MaxDP=1.80D-05 DE=-5.39D-08 OVMax= 3.50D-05

 Cycle   9  Pass 1  IDiag  1:
 RMSU=  4.66D-07    CP:  9.90D-01  9.92D-01  6.04D-01  6.19D-01  8.58D-01
                    CP:  1.03D+00  1.06D+00  9.12D-01
 E= -1158.73848780018     Delta-E=       -0.000000010305 Rises=F Damp=F
 DIIS: error= 2.94D-06 at cycle   9 NSaved=   9.
 NSaved= 9 IEnMin= 9 EnMin= -1158.73848780018     IErMin= 9 ErrMin= 2.94D-06
 ErrMax= 2.94D-06  0.00D+00 EMaxC= 1.00D-01 BMatC= 1.53D-09 BMatP= 8.75D-09
 IDIUse=1 WtCom= 1.00D+00 WtEn= 0.00D+00
 Coeff-Com:  0.227D-04 0.200D-03 0.492D-04-0.157D-02-0.121D-01-0.692D-01
 Coeff-Com:  0.681D-01 0.422D+00 0.592D+00
 Coeff:      0.227D-04 0.200D-03 0.492D-04-0.157D-02-0.121D-01-0.692D-01
 Coeff:      0.681D-01 0.422D+00 0.592D+00
 Gap=     0.254 Goal=   None    Shift=    0.000
 RMSDP=2.39D-07 MaxDP=7.19D-06 DE=-1.03D-08 OVMax= 1.53D-05

 Cycle  10  Pass 1  IDiag  1:
 RMSU=  1.70D-07    CP:  9.90D-01  9.92D-01  6.04D-01  6.19D-01  8.60D-01
                    CP:  1.03D+00  1.09D+00  9.60D-01  7.47D-01
 E= -1158.73848780192     Delta-E=       -0.000000001743 Rises=F Damp=F
 DIIS: error= 1.03D-06 at cycle  10 NSaved=  10.
 NSaved=10 IEnMin=10 EnMin= -1158.73848780192     IErMin=10 ErrMin= 1.03D-06
 ErrMax= 1.03D-06  0.00D+00 EMaxC= 1.00D-01 BMatC= 1.48D-10 BMatP= 1.53D-09
 IDIUse=1 WtCom= 1.00D+00 WtEn= 0.00D+00
 Coeff-Com: -0.738D-05 0.366D-03 0.671D-03 0.108D-02-0.155D-02-0.216D-01
 Coeff-Com: -0.187D-01 0.220D-01 0.237D+00 0.781D+00
 Coeff:     -0.738D-05 0.366D-03 0.671D-03 0.108D-02-0.155D-02-0.216D-01
 Coeff:     -0.187D-01 0.220D-01 0.237D+00 0.781D+00
 Gap=     0.254 Goal=   None    Shift=    0.000
 RMSDP=1.08D-07 MaxDP=3.70D-06 DE=-1.74D-09 OVMax= 5.38D-06

 Cycle  11  Pass 1  IDiag  1:
 RMSU=  6.18D-08    CP:  9.90D-01  9.92D-01  6.04D-01  6.19D-01  8.60D-01
                    CP:  1.03D+00  1.10D+00  9.94D-01  8.89D-01  9.03D-01
 E= -1158.73848780211     Delta-E=       -0.000000000188 Rises=F Damp=F
 DIIS: error= 5.62D-07 at cycle  11 NSaved=  11.
 NSaved=11 IEnMin=11 EnMin= -1158.73848780211     IErMin=11 ErrMin= 5.62D-07
 ErrMax= 5.62D-07  0.00D+00 EMaxC= 1.00D-01 BMatC= 2.56D-11 BMatP= 1.48D-10
 IDIUse=1 WtCom= 1.00D+00 WtEn= 0.00D+00
 Coeff-Com: -0.593D-05 0.154D-03 0.318D-03 0.711D-03 0.425D-03-0.315D-02
 Coeff-Com: -0.156D-01-0.353D-01 0.499D-01 0.380D+00 0.623D+00
 Coeff:     -0.593D-05 0.154D-03 0.318D-03 0.711D-03 0.425D-03-0.315D-02
 Coeff:     -0.156D-01-0.353D-01 0.499D-01 0.380D+00 0.623D+00
 Gap=     0.254 Goal=   None    Shift=    0.000
 RMSDP=3.15D-08 MaxDP=7.42D-07 DE=-1.88D-10 OVMax= 2.35D-06

 Cycle  12  Pass 1  IDiag  1:
 RMSU=  2.08D-08    CP:  9.90D-01  9.92D-01  6.04D-01  6.19D-01  8.60D-01
                    CP:  1.03D+00  1.11D+00  9.99D-01  8.97D-01  1.00D+00
                    CP:  8.08D-01
 E= -1158.73848780216     Delta-E=       -0.000000000049 Rises=F Damp=F
 DIIS: error= 1.42D-07 at cycle  12 NSaved=  12.
 NSaved=12 IEnMin=12 EnMin= -1158.73848780216     IErMin=12 ErrMin= 1.42D-07
 ErrMax= 1.42D-07  0.00D+00 EMaxC= 1.00D-01 BMatC= 2.35D-12 BMatP= 2.56D-11
 IDIUse=1 WtCom= 1.00D+00 WtEn= 0.00D+00
 Coeff-Com: -0.104D-05 0.423D-05 0.187D-04 0.103D-03 0.291D-03 0.179D-02
 Coeff-Com: -0.213D-02-0.152D-01-0.140D-01 0.259D-01 0.220D+00 0.783D+00
 Coeff:     -0.104D-05 0.423D-05 0.187D-04 0.103D-03 0.291D-03 0.179D-02
 Coeff:     -0.213D-02-0.152D-01-0.140D-01 0.259D-01 0.220D+00 0.783D+00
 Gap=     0.254 Goal=   None    Shift=    0.000
 RMSDP=1.40D-08 MaxDP=5.51D-07 DE=-4.91D-11 OVMax= 1.12D-06

 Cycle  13  Pass 1  IDiag  1:
 RMSU=  9.99D-09    CP:  9.90D-01  9.92D-01  6.04D-01  6.19D-01  8.60D-01
                    CP:  1.03D+00  1.11D+00  9.98D-01  9.07D-01  1.03D+00
                    CP:  9.05D-01  9.63D-01
 E= -1158.73848780217     Delta-E=       -0.000000000012 Rises=F Damp=F
 DIIS: error= 5.22D-08 at cycle  13 NSaved=  13.
 NSaved=13 IEnMin=13 EnMin= -1158.73848780217     IErMin=13 ErrMin= 5.22D-08
 ErrMax= 5.22D-08  0.00D+00 EMaxC= 1.00D-01 BMatC= 5.87D-13 BMatP= 2.35D-12
 IDIUse=1 WtCom= 1.00D+00 WtEn= 0.00D+00
 Coeff-Com:  0.776D-06-0.324D-04-0.636D-04-0.110D-03 0.364D-04 0.159D-02
 Coeff-Com:  0.240D-02-0.108D-03-0.186D-01-0.748D-01-0.379D-01 0.374D+00
 Coeff-Com:  0.753D+00
 Coeff:      0.776D-06-0.324D-04-0.636D-04-0.110D-03 0.364D-04 0.159D-02
 Coeff:      0.240D-02-0.108D-03-0.186D-01-0.748D-01-0.379D-01 0.374D+00
 Coeff:      0.753D+00
 Gap=     0.254 Goal=   None    Shift=    0.000
 RMSDP=6.70D-09 MaxDP=1.61D-07 DE=-1.18D-11 OVMax= 6.03D-07

 SCF Done:  E(RM062X) =  -1158.73848780     A.U. after   13 cycles
            NFock= 13  Conv=0.67D-08     -V/T= 2.0081
 KE= 1.149463333586D+03 PE=-6.450304644991D+03 EE= 2.266106860791D+03
 Leave Link  502 at Mon Aug 11 17:45:42 2025, MaxMem=  2147483648 cpu:             118.9 elap:              30.0
 (Enter /opt/apps/pkg/applications/licensed/gaussian/v16/x86_64AVX2/g16/l801.exe)
 DoSCS=F DFT=T ScalE2(SS,OS)=  1.000000  1.000000
 ExpMin= 1.83D-01 ExpMax= 4.14D+02 ExpMxC= 4.14D+02 IAcc=3 IRadAn=         5 AccDes= 0.00D+00
 HarFok:  IExCor=  205 AccDes= 0.00D+00 IRadAn=         5 IDoV=-2 UseB2=F ITyADJ=14
 ICtDFT= 12500011 ScaDFX=  1.000000  1.000000  1.000000  1.000000
 GSVD:  LWork=        -825 too small for GESVD, short by        3500 words or        3500 for optimal perf.
 Largest valence mixing into a core orbital is  2.79D-04
 Largest core mixing into a valence orbital is  1.04D-04
 Range of M.O.s used for correlation:    26   247
 NBasis=   247 NAE=    86 NBE=    86 NFC=    25 NFV=     0
 NROrb=    222 NOA=    61 NOB=    61 NVA=   161 NVB=   161
 Leave Link  801 at Mon Aug 11 17:45:43 2025, MaxMem=  2147483648 cpu:               1.5 elap:               0.8
 (Enter /opt/apps/pkg/applications/licensed/gaussian/v16/x86_64AVX2/g16/l914.exe)
 RHF ground state
 Keep R1, R2, and R3 ints in memory in canonical form, NReq=1440963171.
 FoFCou: FMM=F IPFlag=           0 FMFlag=           0 FMFlg1=           0
         NFxFlg=           0 DoJE=F BraDBF=F KetDBF=F FulRan=T
         wScrn=  0.000000 ICntrl=       600 IOpCl=  0 I1Cent=           0 NGrid=           0
         NMat0=    1 NMatS0=  30628 NMatT0=    0 NMatD0=    1 NMtDS0=    0 NMtDT0=    0
 Symmetry not used in FoFCou.
 Two-electron integral symmetry not used.
 MDV=  2147483648 DFT=T DoStab=F Mixed=T DoRPA=T DoScal=F NonHer=T
 Making orbital integer symmetry assigments:
    24 initial guesses have been made.
 Convergence on wavefunction:    0.001000000000000
 Davidson Disk Diagonalization:  ConvIn= 1.00D-03 SkipCon=T Conv= 1.00D-03.
 Max sub-space:  2000 roots to seek:    24 dimension of matrix:        19642
 Iteration     1 Dimension    24 NMult     0 NNew     24
 CISAX will form    24 AO SS matrices at one time.
 NMat=    24 NSing=    12 JSym2X= 0.
 New state      1 was old state      6
 New state      2 was old state     10
 New state      3 was old state      4
 New state      4 was old state      9
 New state      5 was old state     16
 New state      6 was old state      8
 New state      7 was old state      3
 New state      8 was old state     12
 New state      9 was old state      1
 New state     10 was old state      2
 New state     11 was old state     24
 New state     12 was old state      5
 Excitation Energies [eV] at current iteration:
 Root      1 :     4.321056541847976
 Root      2 :     4.690742044385949
 Root      3 :     4.745667966008501
 Root      4 :     4.800100442959494
 Root      5 :     5.184496280475621
 Root      6 :     5.332175275027510
 Root      7 :     5.635690775235382
 Root      8 :     5.682318184820720
 Root      9 :     5.725002194744604
 Root     10 :     5.979246499089797
 Root     11 :     6.038662166855195
 Root     12 :     6.102051307564048
 Root     13 :     6.487390779614817
 Root     14 :     6.538938340372612
 Root     15 :     6.668487153611850
 Root     16 :     6.690113183525067
 Root     17 :     6.874481303648782
 Root     18 :     6.973811910787865
 Root     19 :     7.219707405416004
 Root     20 :     7.232209019450628
 Root     21 :     7.234661999109144
 Root     22 :     7.240778735494622
 Root     23 :     7.242142416124667
 Root     24 :     7.326168923350709
 Vector   5 SDiff=9.73D-01 TDiff=3.44D+00 assumed to be singlet.
 Vector   6 SDiff=8.76D-01 TDiff=4.56D+00 assumed to be singlet.
 Vector  11 SDiff=9.70D-01 TDiff=2.92D+00 assumed to be singlet.
 Vector  12 SDiff=8.97D-01 TDiff=3.95D+00 assumed to be singlet.
 Iteration     2 Dimension    36 NMult    24 NNew     12
 CISAX will form    12 AO SS matrices at one time.
 NMat=    12 NSing=     6 JSym2X= 0.
 Root      1 not converged, maximum delta is    0.185783024457963
 Root      2 not converged, maximum delta is    0.139965167291194
 Root      3 not converged, maximum delta is    0.156835010196361
 Root      4 not converged, maximum delta is    0.102782872390962
 New state      5 was old state      7
 Root      5 not converged, maximum delta is    0.142449579590133
 New state      6 was old state      9
 Root      6 not converged, maximum delta is    0.171770944265862
 Excitation Energies [eV] at current iteration:
 Root      1 :     3.561463413861864   Change is   -0.759593127986112
 Root      2 :     4.264869082649435   Change is   -0.425872961736514
 Root      3 :     4.353594642065912   Change is   -0.392073323942589
 Root      4 :     4.484770340750406   Change is   -0.315330102209087
 Root      5 :     5.246714693367537   Change is   -0.388976081867845
 Root      6 :     5.477000270865896   Change is   -0.248001923878708
 Iteration     3 Dimension    48 NMult    36 NNew     12
 CISAX will form    12 AO SS matrices at one time.
 NMat=    12 NSing=     6 JSym2X= 0.
 Root      1 not converged, maximum delta is    0.025245089915807
 Root      2 not converged, maximum delta is    0.152016612036551
 Root      3 not converged, maximum delta is    0.027184782658885
 Root      4 not converged, maximum delta is    0.028340613579735
 Root      5 not converged, maximum delta is    0.105685892829031
 Root      6 not converged, maximum delta is    0.075261564517124
 Excitation Energies [eV] at current iteration:
 Root      1 :     3.517027723652610   Change is   -0.044435690209254
 Root      2 :     4.106074656109551   Change is   -0.158794426539884
 Root      3 :     4.325067483716267   Change is   -0.028527158349645
 Root      4 :     4.459769818662042   Change is   -0.025000522088364
 Root      5 :     5.068485973638918   Change is   -0.178228719728619
 Root      6 :     5.332591377184530   Change is   -0.144408893681367
 Iteration     4 Dimension    60 NMult    48 NNew     12
 CISAX will form    12 AO SS matrices at one time.
 NMat=    12 NSing=     6 JSym2X= 0.
 Root      1 not converged, maximum delta is    0.018986366449588
 Root      2 not converged, maximum delta is    0.212153214291057
 Root      3 not converged, maximum delta is    0.120318344317761
 Root      4 not converged, maximum delta is    0.064904518658879
 Root      5 not converged, maximum delta is    0.037059754132607
 No map to state      6
 Excitation Energies [eV] at current iteration:
 Root      1 :     3.512051148449117   Change is   -0.004976575203493
 Root      2 :     3.965784651763886   Change is   -0.140290004345665
 Root      3 :     4.292809306195370   Change is   -0.032258177520897
 Root      4 :     4.443096687504505   Change is   -0.016673131157537
 Root      5 :     5.031343496929166   Change is   -0.037142476709752
 Root      6 :     5.147340057858673
 Iteration     5 Dimension    72 NMult    60 NNew     12
 CISAX will form    12 AO SS matrices at one time.
 NMat=    12 NSing=     6 JSym2X= 0.
 Root      1 not converged, maximum delta is    0.004059934648633
 Root      2 not converged, maximum delta is    0.025196481715256
 Root      3 not converged, maximum delta is    0.155521781937073
 Root      4 not converged, maximum delta is    0.013695262069519
 New state      5 was old state      6
 Root      5 not converged, maximum delta is    0.045021288527738
 New state      6 was old state      5
 Root      6 not converged, maximum delta is    0.020803736442768
 Excitation Energies [eV] at current iteration:
 Root      1 :     3.511409559979356   Change is   -0.000641588469761
 Root      2 :     3.953207901031949   Change is   -0.012576750731936
 Root      3 :     4.250744594404178   Change is   -0.042064711791192
 Root      4 :     4.439631719675382   Change is   -0.003464967829123
 Root      5 :     4.998484295116837   Change is   -0.148855762741836
 Root      6 :     5.025883656523193   Change is   -0.005459840405973
 Iteration     6 Dimension    84 NMult    72 NNew     12
 CISAX will form    12 AO SS matrices at one time.
 NMat=    12 NSing=     6 JSym2X= 0.
 Root      1 not converged, maximum delta is    0.001562481355152
 Root      2 not converged, maximum delta is    0.032261295898999
 Root      3 not converged, maximum delta is    0.029559924871543
 Root      4 not converged, maximum delta is    0.010385015626546
 Root      5 not converged, maximum delta is    0.410523612660579
 Root      6 not converged, maximum delta is    0.053531717652589
 Excitation Energies [eV] at current iteration:
 Root      1 :     3.511329112220033   Change is   -0.000080447759322
 Root      2 :     3.947379431636621   Change is   -0.005828469395328
 Root      3 :     4.240581967873108   Change is   -0.010162626531070
 Root      4 :     4.438925135638023   Change is   -0.000706584037359
 Root      5 :     4.930967123857178   Change is   -0.067517171259659
 Root      6 :     5.025082113963520   Change is   -0.000801542559673
 Iteration     7 Dimension    96 NMult    84 NNew     12
 CISAX will form    12 AO SS matrices at one time.
 NMat=    12 NSing=     6 JSym2X= 0.
 Root      1 has converged.
 Root      2 not converged, maximum delta is    0.041044696289595
 Root      3 not converged, maximum delta is    0.013956436708813
 Root      4 not converged, maximum delta is    0.002200470513029
 Root      5 not converged, maximum delta is    0.149251990633730
 Root      6 not converged, maximum delta is    0.419353483764833
 Excitation Energies [eV] at current iteration:
 Root      1 :     3.511319554924103   Change is   -0.000009557295930
 Root      2 :     3.942010198941521   Change is   -0.005369232695100
 Root      3 :     4.238423969379093   Change is   -0.002157998494015
 Root      4 :     4.438821099380020   Change is   -0.000104036258004
 Root      5 :     4.891169195179258   Change is   -0.039797928677920
 Root      6 :     5.020188687316635   Change is   -0.004893426646885
 Iteration     8 Dimension   106 NMult    96 NNew     10
 CISAX will form    10 AO SS matrices at one time.
 NMat=    10 NSing=     6 JSym2X= 0.
 Root      1 has converged.
 Root      2 not converged, maximum delta is    0.004443224488240
 Root      3 not converged, maximum delta is    0.020160254664785
 Root      4 has converged.
 Root      5 not converged, maximum delta is    0.009887594564605
 Root      6 not converged, maximum delta is    0.031344377237094
 Excitation Energies [eV] at current iteration:
 Root      1 :     3.511318876107937   Change is   -0.000000678816167
 Root      2 :     3.941546613894171   Change is   -0.000463585047350
 Root      3 :     4.237389675231517   Change is   -0.001034294147575
 Root      4 :     4.438813221591651   Change is   -0.000007877788368
 Root      5 :     4.887153919616951   Change is   -0.004015275562307
 Root      6 :     5.018615047785407   Change is   -0.001573639531228
 Iteration     9 Dimension   114 NMult   106 NNew      8
 CISAX will form     8 AO SS matrices at one time.
 NMat=     8 NSing=     4 JSym2X= 0.
 Root      1 has converged.
 Root      2 has converged.
 Root      3 not converged, maximum delta is    0.042561021176722
 Root      4 has converged.
 Root      5 has converged.
 Root      6 not converged, maximum delta is    0.002158285894245
 Excitation Energies [eV] at current iteration:
 Root      1 :     3.511318778070176   Change is   -0.000000098037760
 Root      2 :     3.941526454287874   Change is   -0.000020159606297
 Root      3 :     4.236006200582879   Change is   -0.001383474648638
 Root      4 :     4.438812730086560   Change is   -0.000000491505092
 Root      5 :     4.886814527584074   Change is   -0.000339392032877
 Root      6 :     5.018487926414794   Change is   -0.000127121370613
 Iteration    10 Dimension   118 NMult   114 NNew      4
 CISAX will form     4 AO SS matrices at one time.
 NMat=     4 NSing=     2 JSym2X= 0.
 Root      1 has converged.
 Root      2 has converged.
 Root      3 not converged, maximum delta is    0.176029388011690
 Root      4 has converged.
 Root      5 has converged.
 Root      6 has converged.
 Excitation Energies [eV] at current iteration:
 Root      1 :     3.511318720560551   Change is   -0.000000057509625
 Root      2 :     3.941526440963630   Change is   -0.000000013324244
 Root      3 :     4.230306469518848   Change is   -0.005699731064030
 Root      4 :     4.438812653380340   Change is   -0.000000076706219
 Root      5 :     4.886786919349378   Change is   -0.000027608234697
 Root      6 :     5.018474883487483   Change is   -0.000013042927310
 Iteration    11 Dimension   120 NMult   118 NNew      2
 CISAX will form     2 AO SS matrices at one time.
 NMat=     2 NSing=     0 JSym2X= 0.
 Root      1 has converged.
 Root      2 has converged.
 Root      3 not converged, maximum delta is    0.202184029254408
 Root      4 has converged.
 Root      5 has converged.
 Root      6 has converged.
 Excitation Energies [eV] at current iteration:
 Root      1 :     3.511318711831917   Change is   -0.000000008728634
 Root      2 :     3.941526429757704   Change is   -0.000000011205926
 Root      3 :     4.216260893993400   Change is   -0.014045575525448
 Root      4 :     4.438812653380321   Change is   -0.000000000000019
 Root      5 :     4.886786919349412   Change is    0.000000000000034
 Root      6 :     5.018474883487499   Change is    0.000000000000016
 Iteration    12 Dimension   122 NMult   120 NNew      2
 CISAX will form     2 AO SS matrices at one time.
 NMat=     2 NSing=     0 JSym2X= 0.
 Root      1 has converged.
 Root      2 has converged.
 Root      3 not converged, maximum delta is    0.031094063195774
 Root      4 has converged.
 Root      5 has converged.
 Root      6 has converged.
 Excitation Energies [eV] at current iteration:
 Root      1 :     3.511318679840222   Change is   -0.000000031991695
 Root      2 :     3.941526427082343   Change is   -0.000000002675361
 Root      3 :     4.212365026555315   Change is   -0.003895867438085
 Root      4 :     4.438812653380303   Change is   -0.000000000000018
 Root      5 :     4.886786919349345   Change is   -0.000000000000067
 Root      6 :     5.018474883487451   Change is   -0.000000000000049
 Iteration    13 Dimension   124 NMult   122 NNew      2
 CISAX will form     2 AO SS matrices at one time.
 NMat=     2 NSing=     0 JSym2X= 0.
 Root      1 has converged.
 Root      2 has converged.
 Root      3 not converged, maximum delta is    0.006347416502412
 Root      4 has converged.
 Root      5 has converged.
 Root      6 has converged.
 Excitation Energies [eV] at current iteration:
 Root      1 :     3.511318568199552   Change is   -0.000000111640670
 Root      2 :     3.941526425085099   Change is   -0.000000001997244
 Root      3 :     4.211631254406163   Change is   -0.000733772149152
 Root      4 :     4.438812653380321   Change is    0.000000000000018
 Root      5 :     4.886786919349428   Change is    0.000000000000084
 Root      6 :     5.018474883487499   Change is    0.000000000000049
 Iteration    14 Dimension   126 NMult   124 NNew      2
 CISAX will form     2 AO SS matrices at one time.
 NMat=     2 NSing=     0 JSym2X= 0.
 Root      1 has converged.
 Root      2 has converged.
 Root      3 not converged, maximum delta is    0.001935940907485
 Root      4 has converged.
 Root      5 has converged.
 Root      6 has converged.
 Excitation Energies [eV] at current iteration:
 Root      1 :     3.511318560318273   Change is   -0.000000007881279
 Root      2 :     3.941526419726305   Change is   -0.000000005358793
 Root      3 :     4.211506766328402   Change is   -0.000124488077761
 Root      4 :     4.438812653380340   Change is    0.000000000000019
 Root      5 :     4.886786919349361   Change is   -0.000000000000067
 Root      6 :     5.018474883487434   Change is   -0.000000000000066
 Iteration    15 Dimension   128 NMult   126 NNew      2
 CISAX will form     2 AO SS matrices at one time.
 NMat=     2 NSing=     0 JSym2X= 0.
 Root      1 has converged.
 Root      2 has converged.
 Root      3 has converged.
 Root      4 has converged.
 Root      5 has converged.
 Root      6 has converged.
 Excitation Energies [eV] at current iteration:
 Root      1 :     3.511318522459820   Change is   -0.000000037858453
 Root      2 :     3.941526394247966   Change is   -0.000000025478340
 Root      3 :     4.211489473241228   Change is   -0.000017293087174
 Root      4 :     4.438812653380358   Change is    0.000000000000018
 Root      5 :     4.886786919349378   Change is    0.000000000000017
 Root      6 :     5.018474883487451   Change is    0.000000000000017
 Convergence achieved on expansion vectors.
 ***********************************************************************
 Excited states from <AA,BB:AA,BB> singles matrix:
 ***********************************************************************
 
 1PDM for each excited state written to RWF  633
 Ground to excited state transition densities written to RWF  633
 Ground to excited state transition electric dipole moments (Au):
       state          X           Y           Z        Dip. S.      Osc.
         1        -0.0000      0.0000     -0.0000      0.0000      0.0000
         2         0.0000     -0.0000     -0.0000      0.0000      0.0000
         3         0.0000      0.0000     -0.0000      0.0000      0.0000
         4        -0.0078     -0.1267     -0.0559      0.0192      0.0021
         5        -0.0142     -0.1436     -0.0570      0.0241      0.0029
         6         0.2861     -0.1650      0.0836      0.1161      0.0143
 Ground to excited state transition velocity dipole moments (Au):
       state          X           Y           Z        Dip. S.      Osc.
         1        -0.0000      0.0000      0.0000      0.0000      0.0000
         2        -0.0000      0.0000      0.0000      0.0000      0.0000
         3         0.0000     -0.0000     -0.0000      0.0000      0.0000
         4         0.0035      0.0581      0.0250      0.0040      0.0164
         5         0.0061      0.0851      0.0359      0.0086      0.0318
         6        -0.0432      0.0460     -0.0053      0.0040      0.0145
 Ground to excited state transition magnetic dipole moments (Au):
       state          X           Y           Z
         1         0.0000      0.0000      0.0000
         2         0.0000      0.0000      0.0000
         3        -0.0000      0.0000      0.0000
         4         1.5541      0.4581     -1.2916
         5         1.8254      0.5212     -1.4948
         6         1.2052      0.2723     -0.8850
 Ground to excited state transition velocity quadrupole moments (Au):
       state          XX          YY          ZZ          XY          XZ          YZ
         1         0.0000     -0.0000     -0.0000     -0.0000     -0.0000      0.0000
         2         0.0000      0.0000     -0.0000     -0.0000     -0.0000      0.0000
         3        -0.0000     -0.0000     -0.0000      0.0000     -0.0000      0.0000
         4        -0.1367      0.8009     -0.6638     -1.0755     -0.5207     -0.6040
         5        -0.1966      1.1995     -0.9949     -1.5506     -0.7406     -0.9151
         6         0.6336      0.5013     -0.2150     -0.7615      0.0175     -0.4467
 <0|del|b> * <b|rxdel|0> + <0|del|b> * <b|delr+rdel|0>
 Rotatory Strengths (R) in cgs (10**-40 erg-esu-cm/Gauss)
       state          XX          YY          ZZ    R(velocity)    E-M Angle
         1         0.0000     -0.0000      0.0000      0.0000       90.00
         2        -0.0000      0.0000      0.0000      0.0000       90.00
         3        -0.0000      0.0000     -0.0000     -0.0000       90.00
         4        -4.8939     -4.4172      8.6680     -0.2144       90.06
         5        -3.8488     14.9054     -3.7823      2.4248       89.53
         6        39.1341    -61.5340   -111.1375    -44.5124      111.21
 1/2[<0|r|b>*<b|rxdel|0> + (<0|rxdel|b>*<b|r|0>)*]
 Rotatory Strengths (R) in cgs (10**-40 erg-esu-cm/Gauss)
       state          XX          YY          ZZ     R(length)
         1         0.0000     -0.0000      0.0000      0.0000
         2        -0.0000      0.0000      0.0000     -0.0000
         3         0.0000     -0.0000      0.0000      0.0000
         4         8.5716     41.0305    -51.0781     -0.4920
         5        18.2770     52.9292    -60.2862      3.6400
         6      -243.8329     31.7820     52.3369    -53.2380
  1/2[<0|del|b>*<b|r|0> + (<0|r|b>*<b|del|0>)*] (Au)
       state          X           Y           Z        Dip. S.   Osc.(frdel)
         1         0.0000      0.0000     -0.0000      0.0000      0.0000
         2        -0.0000     -0.0000     -0.0000      0.0000      0.0000
         3         0.0000     -0.0000      0.0000     -0.0000     -0.0000
         4        -0.0000     -0.0074     -0.0014      0.0088      0.0059
         5        -0.0001     -0.0122     -0.0020      0.0144      0.0096
         6        -0.0124     -0.0076     -0.0004      0.0204      0.0136

 Excitation energies and oscillator strengths:
 
 Excited state symmetry could not be determined.
 Excited State   1:      Triplet-?Sym    3.5113 eV  353.10 nm  f=0.0000  <S**2>=2.000
      77 -> 88        -0.13536
      84 -> 91         0.14304
      85 -> 87         0.16968
      85 -> 88         0.15105
      86 -> 87         0.33935
      86 -> 88         0.49028
 This state for optimization and/or second-order correction.
 Total Energy, E(TD-HF/TD-DFT) =  -1158.60944922    
 Copying the excited state density for this state as the 1-particle RhoCI density.
 
 Excited state symmetry could not be determined.
 Excited State   2:      Triplet-?Sym    3.9415 eV  314.56 nm  f=0.0000  <S**2>=2.000
      83 -> 87         0.38692
      83 -> 88        -0.24183
      83 -> 89        -0.47049
      83 -> 93        -0.17271
 
 Excited state symmetry could not be determined.
 Excited State   3:      Triplet-?Sym    4.2115 eV  294.40 nm  f=0.0000  <S**2>=2.000
      80 -> 87        -0.19608
      80 -> 89         0.12851
      81 -> 87         0.51472
      81 -> 88        -0.21869
      81 -> 89         0.11215
      85 -> 88         0.11912
      86 -> 91        -0.12543
 
 Excited state symmetry could not be determined.
 Excited State   4:      Singlet-?Sym    4.4388 eV  279.32 nm  f=0.0021  <S**2>=0.000
      79 -> 87         0.12847
      83 -> 87         0.58815
      83 -> 88        -0.28567
      83 -> 89        -0.11546
      83 -> 93        -0.12016
 
 Excited state symmetry could not be determined.
 Excited State   5:      Singlet-?Sym    4.8868 eV  253.71 nm  f=0.0029  <S**2>=0.000
      79 -> 87        -0.29017
      79 -> 88         0.10697
      79 -> 93        -0.11186
      83 -> 89        -0.59286
      83 -> 93        -0.10562
 
 Excited state symmetry could not be determined.
 Excited State   6:      Singlet-?Sym    5.0185 eV  247.06 nm  f=0.0143  <S**2>=0.000
      79 -> 87         0.49127
      79 -> 88        -0.17089
      79 -> 93         0.18606
      83 -> 87        -0.16767
      83 -> 89        -0.31275
 SavETr:  write IOETrn=   770 NScale= 10 NData=  16 NLR=1 NState=    6 LETran=     118.
 Leave Link  914 at Mon Aug 11 17:53:56 2025, MaxMem=  2147483648 cpu:            1388.0 elap:             493.2
 (Enter /opt/apps/pkg/applications/licensed/gaussian/v16/x86_64AVX2/g16/l601.exe)
 Copying SCF densities to generalized density rwf, IOpCl= 0 IROHF=0.

 **********************************************************************

            Population analysis using the SCF density.

 **********************************************************************

 Alpha  occ. eigenvalues --  -25.16183 -19.64569 -19.64062 -19.58548 -14.77044
 Alpha  occ. eigenvalues --  -14.71540 -10.67405 -10.60371 -10.60023 -10.58789
 Alpha  occ. eigenvalues --  -10.57089 -10.55839 -10.55790 -10.54365 -10.54195
 Alpha  occ. eigenvalues --  -10.53787 -10.53517 -10.53417 -10.52957 -10.52949
 Alpha  occ. eigenvalues --  -10.52938 -10.52431 -10.52160 -10.51974 -10.51923
 Alpha  occ. eigenvalues --   -1.37183  -1.27379  -1.26629  -1.19451  -1.09190
 Alpha  occ. eigenvalues --   -1.03101  -1.00285  -0.99054  -0.94900  -0.90589
 Alpha  occ. eigenvalues --   -0.89074  -0.88367  -0.87751  -0.87060  -0.80244
 Alpha  occ. eigenvalues --   -0.75546  -0.74820  -0.74110  -0.73855  -0.73059
 Alpha  occ. eigenvalues --   -0.68853  -0.66990  -0.64907  -0.63519  -0.61898
 Alpha  occ. eigenvalues --   -0.61052  -0.59824  -0.58750  -0.58155  -0.57775
 Alpha  occ. eigenvalues --   -0.56979  -0.55963  -0.55827  -0.55424  -0.54613
 Alpha  occ. eigenvalues --   -0.54047  -0.53515  -0.52287  -0.51770  -0.49946
 Alpha  occ. eigenvalues --   -0.49854  -0.49506  -0.48581  -0.47091  -0.46701
 Alpha  occ. eigenvalues --   -0.46021  -0.45733  -0.45127  -0.43505  -0.42632
 Alpha  occ. eigenvalues --   -0.41865  -0.39940  -0.38615  -0.37875  -0.36717
 Alpha  occ. eigenvalues --   -0.34371  -0.33450  -0.32774  -0.32508  -0.31107
 Alpha  occ. eigenvalues --   -0.29817
 Alpha virt. eigenvalues --   -0.04400  -0.02405   0.00248   0.01363   0.01673
 Alpha virt. eigenvalues --    0.03030   0.08027   0.09760   0.10563   0.13279
 Alpha virt. eigenvalues --    0.14360   0.14868   0.18226   0.19059   0.20252
 Alpha virt. eigenvalues --    0.20404   0.20793   0.21374   0.21987   0.22591
 Alpha virt. eigenvalues --    0.23266   0.24174   0.24540   0.25510   0.25969
 Alpha virt. eigenvalues --    0.27333   0.28220   0.29268   0.29691   0.30236
 Alpha virt. eigenvalues --    0.32191   0.33576   0.35319   0.35678   0.36952
 Alpha virt. eigenvalues --    0.37228   0.39220   0.41108   0.42276   0.44323
 Alpha virt. eigenvalues --    0.45093   0.47145   0.50073   0.52331   0.55029
 Alpha virt. eigenvalues --    0.56684   0.60965   0.62318   0.63294   0.64332
 Alpha virt. eigenvalues --    0.69206   0.70232   0.71610   0.72120   0.72650
 Alpha virt. eigenvalues --    0.73206   0.74448   0.74768   0.75026   0.75671
 Alpha virt. eigenvalues --    0.76383   0.77558   0.78493   0.79830   0.80110
 Alpha virt. eigenvalues --    0.81153   0.81327   0.81940   0.82337   0.82458
 Alpha virt. eigenvalues --    0.82733   0.83244   0.83896   0.84658   0.85754
 Alpha virt. eigenvalues --    0.85834   0.86217   0.86844   0.87054   0.88253
 Alpha virt. eigenvalues --    0.88390   0.89208   0.89601   0.90450   0.92827
 Alpha virt. eigenvalues --    0.94382   0.95402   0.98645   0.98915   1.03216
 Alpha virt. eigenvalues --    1.04275   1.05646   1.06993   1.08658   1.09027
 Alpha virt. eigenvalues --    1.11363   1.12443   1.13225   1.14606   1.16310
[...]
    28  H   -0.028513  -0.005088   0.006165  -0.000031   0.000008   0.000352
    29  H    0.389918  -0.000047  -0.000001  -0.000000  -0.000000   0.000000
    30  H   -0.000002  -0.003757  -0.000015  -0.000008   0.003209  -0.039224
    31  H    0.000000  -0.000022   0.000000  -0.000000  -0.000028   0.003675
    32  H    0.000000  -0.000046  -0.000004  -0.001961  -0.036827   0.004720
    33  H    0.000000   0.000000  -0.000000  -0.000000   0.000003   0.000000
    34  H    0.000000   0.000000  -0.000000   0.000000  -0.000000   0.000000
    35  H    0.000000  -0.000000   0.000000   0.000000   0.000000  -0.000000
    36  H    0.000000  -0.000000  -0.000000   0.000000  -0.000000   0.000000
              13         14         15         16         17         18
     1  F    0.000000   0.000000   0.000000  -0.000000   0.000000   0.000000
     2  C   -0.000000   0.000000  -0.000000   0.000000   0.000000  -0.000000
     3  C   -0.000022  -0.000000   0.000000  -0.000000   0.000000   0.000000
     4  C   -0.001771   0.000065  -0.000001   0.000001   0.000000   0.000000
     5  C   -0.000330   0.000042  -0.000009  -0.000037  -0.000000  -0.000000
     6  C   -0.000108   0.000000   0.000000  -0.000001  -0.000000   0.000000
     7  C   -0.000000  -0.000000   0.000000  -0.000000  -0.000000  -0.000000
     8  C   -0.011715   0.003759  -0.000485   0.008541  -0.000000  -0.000000
     9  N    0.004038  -0.000021  -0.000110   0.002386   0.000000  -0.000000
    10  O    0.004104  -0.000226   0.002529  -0.042357  -0.000000   0.000000
    11  C   -0.039050  -0.024610  -0.068172   0.356838   0.003270  -0.000043
    12  C    0.351418  -0.078102  -0.036549  -0.064222  -0.000205  -0.000016
    13  C    5.227731   0.397875  -0.055990  -0.025437   0.002516   0.000655
    14  C    0.397875   5.378741   0.344795  -0.087883  -0.053026  -0.000772
    15  C   -0.055990   0.344795   4.951981   0.451813   0.247125  -0.046543
    16  C   -0.025437  -0.087883   0.451813   5.253756  -0.040454   0.001074
    17  O    0.002516  -0.053026   0.247125  -0.040454   8.405674   0.213451
    18  C    0.000655  -0.000772  -0.046543   0.001074   0.213451   4.489068
    19  O    0.000404  -0.004604  -0.007449   0.000001  -0.055597   0.542992
    20  C    0.000010   0.000023   0.002952  -0.000149  -0.105052   0.142093
    21  C   -0.000000   0.000001  -0.000218  -0.000007   0.008039  -0.041880
    22  C   -0.000000   0.000000  -0.000000  -0.000000   0.000387   0.003045
    23  C    0.000000  -0.000000   0.000000   0.000000  -0.000005   0.000155
    24  N    0.000000  -0.000000   0.000000   0.000000  -0.000002   0.004285
    25  C   -0.000000  -0.000002  -0.000005   0.000000   0.002192  -0.047245
    26  H    0.000000  -0.000000   0.000000  -0.000000  -0.000000  -0.000000
    27  H    0.002014   0.000071  -0.000001  -0.000002  -0.000000   0.000000
    28  H   -0.000007   0.000000   0.000000  -0.000000  -0.000000   0.000000
    29  H    0.000000   0.000000   0.000000   0.000000  -0.000000  -0.000000
    30  H    0.393596  -0.031060   0.002981  -0.000153  -0.000003  -0.000001
    31  H   -0.025441   0.366683  -0.043806   0.002349  -0.006200  -0.001295
    32  H   -0.000672   0.004054  -0.037249   0.382536  -0.001274  -0.000004
    33  H   -0.000000   0.000026  -0.000174   0.000057   0.011472  -0.003860
    34  H   -0.000000  -0.000000  -0.000000   0.000000  -0.000000  -0.000020
    35  H    0.000000   0.000000   0.000000  -0.000000  -0.000000   0.000006
    36  H   -0.000000  -0.000001   0.000004  -0.000000   0.000089   0.003224
              19         20         21         22         23         24
     1  F    0.000000   0.000000   0.000000   0.000000   0.000000   0.000000
     2  C    0.000000   0.000000   0.000000   0.000000   0.000000   0.000000
     3  C    0.000000   0.000000  -0.000000   0.000000   0.000000   0.000000
     4  C   -0.000000   0.000000  -0.000000  -0.000000   0.000000   0.000000
     5  C    0.000000   0.000000   0.000000   0.000000   0.000000   0.000000
     6  C    0.000000  -0.000000   0.000000   0.000000   0.000000   0.000000
     7  C   -0.000000  -0.000000   0.000000   0.000000   0.000000   0.000000
     8  C   -0.000000  -0.000000   0.000000   0.000000  -0.000000  -0.000000
     9  N    0.000000   0.000000  -0.000000   0.000000   0.000000   0.000000
    10  O   -0.000000  -0.000000  -0.000000  -0.000000  -0.000000   0.000000
    11  C    0.000003   0.000001   0.000000   0.000000   0.000000   0.000000
    12  C   -0.000003  -0.000000   0.000000  -0.000000  -0.000000  -0.000000
    13  C    0.000404   0.000010  -0.000000  -0.000000   0.000000   0.000000
    14  C   -0.004604   0.000023   0.000001   0.000000  -0.000000  -0.000000
    15  C   -0.007449   0.002952  -0.000218  -0.000000   0.000000   0.000000
    16  C    0.000001  -0.000149  -0.000007  -0.000000   0.000000   0.000000
    17  O   -0.055597  -0.105052   0.008039   0.000387  -0.000005  -0.000002
    18  C    0.542992   0.142093  -0.041880   0.003045   0.000155   0.004285
    19  O    8.066270  -0.103742   0.002508  -0.000013   0.000000   0.000038
    20  C   -0.103742   5.920525   0.382240  -0.086729  -0.020296  -0.052025
    21  C    0.002508   0.382240   5.215773   0.418100  -0.095363  -0.033556
    22  C   -0.000013  -0.086729   0.418100   5.374212   0.351105  -0.063195
    23  C    0.000000  -0.020296  -0.095363   0.351105   5.003710   0.432480
    24  N    0.000038  -0.052025  -0.033556  -0.063195   0.432480   6.915210
    25  C    0.004155   0.261019  -0.086231  -0.024126  -0.122688   0.416410
    26  H   -0.000000  -0.000000   0.000000   0.000000   0.000000   0.000000
    27  H    0.000000   0.000000  -0.000000   0.000000   0.000000  -0.000000
    28  H    0.000000  -0.000000   0.000000   0.000000   0.000000   0.000000
    29  H    0.000000   0.000000   0.000000   0.000000   0.000000   0.000000
    30  H    0.000000  -0.000000   0.000000   0.000000  -0.000000  -0.000000
    31  H    0.028823   0.000478  -0.000008   0.000000  -0.000000  -0.000000
    32  H    0.000000  -0.000050   0.000027   0.000001   0.000000  -0.000000
    33  H    0.000052  -0.041655   0.390939  -0.026149   0.002452  -0.000116
    34  H    0.000000   0.003995  -0.035754   0.381243  -0.024184   0.002351
    35  H   -0.000000  -0.000744   0.003652  -0.065028   0.398148  -0.040746
    36  H    0.008044  -0.081704   0.002364  -0.000769   0.003822  -0.034659
              25         26         27         28         29         30
     1  F    0.000000  -0.002149  -0.000001  -0.000000  -0.002183   0.000000
     2  C    0.000000  -0.044289   0.003224   0.003054  -0.044782  -0.000001
     3  C   -0.000000   0.390003  -0.031427  -0.000161   0.004575   0.000094
     4  C    0.000000  -0.033815   0.395403   0.002983  -0.000443   0.002293
     5  C   -0.000000   0.003750  -0.040084  -0.041949   0.003790   0.000718
     6  C    0.000000  -0.000441   0.003172   0.395378  -0.033087  -0.000004
     7  C    0.000000   0.004608  -0.000208  -0.028513   0.389918  -0.000002
     8  C    0.000000  -0.000044  -0.004743  -0.005088  -0.000047  -0.003757
     9  N   -0.000000   0.000000  -0.000007   0.006165  -0.000001  -0.000015
    10  O    0.000000  -0.000000   0.000001  -0.000031  -0.000000  -0.000008
    11  C   -0.000000  -0.000000   0.000022   0.000008  -0.000000   0.003209
    12  C    0.000000   0.000001   0.000834   0.000352   0.000000  -0.039224
    13  C   -0.000000   0.000000   0.002014  -0.000007   0.000000   0.393596
    14  C   -0.000002  -0.000000   0.000071   0.000000   0.000000  -0.031060
    15  C   -0.000005   0.000000  -0.000001   0.000000   0.000000   0.002981
    16  C    0.000000  -0.000000  -0.000002  -0.000000   0.000000  -0.000153
    17  O    0.002192  -0.000000  -0.000000  -0.000000  -0.000000  -0.000003
    18  C   -0.047245  -0.000000   0.000000   0.000000  -0.000000  -0.000001
    19  O    0.004155  -0.000000   0.000000   0.000000   0.000000   0.000000
    20  C    0.261019  -0.000000   0.000000  -0.000000   0.000000  -0.000000
    21  C   -0.086231   0.000000  -0.000000   0.000000   0.000000   0.000000
    22  C   -0.024126   0.000000   0.000000   0.000000   0.000000   0.000000
    23  C   -0.122688   0.000000   0.000000   0.000000   0.000000  -0.000000
    24  N    0.416410   0.000000  -0.000000   0.000000   0.000000  -0.000000
    25  C    5.060179   0.000000  -0.000000   0.000000   0.000000  -0.000000
    26  H    0.000000   0.441541  -0.003405   0.000001  -0.000021  -0.000003
    27  H   -0.000000  -0.003405   0.446882  -0.000040   0.000001   0.002092
    28  H    0.000000   0.000001  -0.000040   0.423322  -0.003275  -0.000000
    29  H    0.000000  -0.000021   0.000001  -0.003275   0.439381  -0.000000
    30  H   -0.000000  -0.000003   0.002092  -0.000000  -0.000000   0.441268
    31  H    0.000000   0.000000  -0.000001  -0.000000  -0.000000  -0.003070
    32  H    0.000000  -0.000000  -0.000000  -0.000000  -0.000000   0.000002
    33  H    0.002402   0.000000   0.000000   0.000000   0.000000   0.000000
    34  H    0.000165   0.000000  -0.000000   0.000000   0.000000  -0.000000
    35  H    0.004229   0.000000   0.000000   0.000000   0.000000  -0.000000
    36  H    0.403490   0.000000  -0.000000  -0.000000   0.000000  -0.000000
              31         32         33         34         35         36
     1  F    0.000000  -0.000000   0.000000   0.000000   0.000000   0.000000
     2  C   -0.000000   0.000000   0.000000   0.000000   0.000000   0.000000
     3  C   -0.000000  -0.000000  -0.000000   0.000000   0.000000  -0.000000
     4  C    0.000000   0.000000  -0.000000   0.000000   0.000000   0.000000
     5  C    0.000000   0.000000   0.000000  -0.000000   0.000000  -0.000000
     6  C   -0.000000  -0.000000  -0.000000   0.000000   0.000000  -0.000000
     7  C    0.000000   0.000000   0.000000   0.000000   0.000000   0.000000
     8  C   -0.000022  -0.000046   0.000000   0.000000  -0.000000  -0.000000
     9  N    0.000000  -0.000004  -0.000000  -0.000000   0.000000  -0.000000
    10  O   -0.000000  -0.001961  -0.000000   0.000000   0.000000   0.000000
    11  C   -0.000028  -0.036827   0.000003  -0.000000   0.000000  -0.000000
    12  C    0.003675   0.004720   0.000000   0.000000  -0.000000   0.000000
    13  C   -0.025441  -0.000672  -0.000000  -0.000000   0.000000  -0.000000
    14  C    0.366683   0.004054   0.000026  -0.000000   0.000000  -0.000001
    15  C   -0.043806  -0.037249  -0.000174  -0.000000   0.000000   0.000004
    16  C    0.002349   0.382536   0.000057   0.000000  -0.000000  -0.000000
    17  O   -0.006200  -0.001274   0.011472  -0.000000  -0.000000   0.000089
    18  C   -0.001295  -0.000004  -0.003860  -0.000020   0.000006   0.003224
    19  O    0.028823   0.000000   0.000052   0.000000  -0.000000   0.008044
    20  C    0.000478  -0.000050  -0.041655   0.003995  -0.000744  -0.081704
    21  C   -0.000008   0.000027   0.390939  -0.035754   0.003652   0.002364
    22  C    0.000000   0.000001  -0.026149   0.381243  -0.065028  -0.000769
    23  C   -0.000000   0.000000   0.002452  -0.024184   0.398148   0.003822
    24  N   -0.000000  -0.000000  -0.000116   0.002351  -0.040746  -0.034659
    25  C    0.000000   0.000000   0.002402   0.000165   0.004229   0.403490
    26  H    0.000000  -0.000000   0.000000   0.000000   0.000000   0.000000
    27  H   -0.000001  -0.000000   0.000000  -0.000000   0.000000  -0.000000
    28  H   -0.000000  -0.000000   0.000000   0.000000   0.000000  -0.000000
    29  H   -0.000000  -0.000000   0.000000   0.000000   0.000000   0.000000
    30  H   -0.003070   0.000002   0.000000  -0.000000  -0.000000  -0.000000
    31  H    0.401377  -0.000011   0.000001  -0.000000   0.000000   0.000001
    32  H   -0.000011   0.434677   0.000408  -0.000000  -0.000000   0.000000
    33  H    0.000001   0.000408   0.417111  -0.002860  -0.000034  -0.000042
    34  H   -0.000000  -0.000000  -0.002860   0.444671  -0.000843   0.000006
    35  H    0.000000  -0.000000  -0.000034  -0.000843   0.454815   0.000023
    36  H    0.000001   0.000000  -0.000042   0.000006   0.000023   0.430332
 Mulliken charges:
               1
     1  F   -0.306268
     2  C    0.299037
     3  C   -0.230597
     4  C   -0.201563
     5  C   -0.043935
     6  C   -0.171905
     7  C   -0.233106
     8  C    0.310137
     9  N   -0.252279
    10  O   -0.446315
    11  C    0.375346
    12  C   -0.133683
    13  C   -0.223819
    14  C   -0.215829
    15  C    0.292579
    16  C   -0.198650
    17  O   -0.632395
    18  C    0.741630
    19  O   -0.481882
    20  C   -0.221190
    21  C   -0.130627
    22  C   -0.262082
    23  C    0.070664
    24  N   -0.546474
    25  C    0.126055
    26  H    0.244263
    27  H    0.226203
    28  H    0.247798
    29  H    0.246172
    30  H    0.231050
    31  H    0.276495
    32  H    0.251673
    33  H    0.249967
    34  H    0.231232
    35  H    0.246522
    36  H    0.265776
 Sum of Mulliken charges =  -0.00000
 Mulliken charges with hydrogens summed into heavy atoms:
               1
     1  F   -0.306268
     2  C    0.299037
     3  C    0.013667
     4  C    0.024640
     5  C   -0.043935
     6  C    0.075893
     7  C    0.013066
     8  C    0.310137
     9  N   -0.252279
    10  O   -0.446315
    11  C    0.375346
    12  C   -0.133683
    13  C    0.007231
    14  C    0.060666
    15  C    0.292579
    16  C    0.053023
    17  O   -0.632395
    18  C    0.741630
    19  O   -0.481882
    20  C   -0.221190
    21  C    0.119340
    22  C   -0.030850
    23  C    0.317186
    24  N   -0.546474
    25  C    0.391831
 Electronic spatial extent (au):  <R**2>=          34486.8097
 Charge=             -0.0000 electrons
 Dipole moment (field-independent basis, Debye):
    X=             -1.5722    Y=              0.3670    Z=             -0.5366  Tot=              1.7013
 Quadrupole moment (field-independent basis, Debye-Ang):
   XX=           -105.0817   YY=           -150.0352   ZZ=           -156.5359
   XY=             -5.2867   XZ=              4.3288   YZ=              9.4300
 Traceless Quadrupole moment (field-independent basis, Debye-Ang):
   XX=             32.1359   YY=            -12.8176   ZZ=            -19.3183
   XY=             -5.2867   XZ=              4.3288   YZ=              9.4300
 Octapole moment (field-independent basis, Debye-Ang**2):
  XXX=           1482.9901  YYY=           -594.1206  ZZZ=           1189.6853  XYY=            759.3903
  XXY=            -86.1263  XXZ=            200.9381  XZZ=            867.8480  YZZ=           -271.3232
  YYZ=            373.0188  XYZ=            -46.3106
 Hexadecapole moment (field-independent basis, Debye-Ang**3):
 XXXX=         -23915.6410 YYYY=          -3350.0227 ZZZZ=         -12970.3521 XXXY=           3118.6355
 XXXZ=          -6308.3046 YYYX=           5016.0805 YYYZ=           3073.3865 ZZZX=         -10251.1002
 ZZZY=           3665.6037 XXYY=          -6267.2773 XXZZ=          -8252.2837 YYZZ=          -2816.9133
 XXYZ=           1044.1962 YYXZ=          -3227.6114 ZZXY=           2250.0974
 N-N= 1.875995962811D+03 E-N=-6.450304645179D+03  KE= 1.149463333586D+03
 Leave Link  601 at Mon Aug 11 17:53:56 2025, MaxMem=  2147483648 cpu:               0.2 elap:               0.1
 (Enter /opt/apps/pkg/applications/licensed/gaussian/v16/x86_64AVX2/g16/l9999.exe)
 Electronic transition elements 
                 1             2             3             4             5 
      1  -0.115861D+04 -0.115859D+04 -0.115858D+04 -0.115858D+04 -0.115856D+04
      2   0.000000D+00  0.000000D+00  0.000000D+00 -0.779928D-02 -0.141586D-01
      3   0.000000D+00  0.000000D+00  0.000000D+00 -0.126668D+00 -0.143609D+00
      4   0.000000D+00  0.000000D+00  0.000000D+00 -0.559207D-01 -0.570299D-01
      5   0.000000D+00  0.000000D+00  0.000000D+00  0.353968D-02  0.611613D-02
      6   0.000000D+00  0.000000D+00  0.000000D+00  0.581419D-01  0.851410D-01
      7   0.000000D+00  0.000000D+00  0.000000D+00  0.249928D-01  0.359180D-01
      8   0.000000D+00  0.000000D+00  0.000000D+00  0.155413D+01  0.182542D+01
      9   0.000000D+00  0.000000D+00  0.000000D+00  0.458055D+00  0.521188D+00
     10   0.000000D+00  0.000000D+00  0.000000D+00 -0.129164D+01 -0.149484D+01
     11   0.000000D+00  0.000000D+00  0.000000D+00 -0.136699D+00 -0.196588D+00
     12   0.000000D+00  0.000000D+00  0.000000D+00  0.800873D+00  0.119952D+01
     13   0.000000D+00  0.000000D+00  0.000000D+00 -0.663832D+00 -0.994868D+00
     14   0.000000D+00  0.000000D+00  0.000000D+00 -0.107554D+01 -0.155060D+01
     15   0.000000D+00  0.000000D+00  0.000000D+00 -0.520665D+00 -0.740615D+00
     16   0.000000D+00  0.000000D+00  0.000000D+00 -0.604031D+00 -0.915067D+00
                 6 
      1  -0.115855D+04
      2   0.286106D+00
      3  -0.165030D+00
      4   0.836243D-01
      5  -0.431728D-01
      6   0.460428D-01
      7  -0.527134D-02
      8   0.120516D+01
      9   0.272331D+00
     10  -0.885022D+00
     11   0.633553D+00
     12   0.501271D+00
     13  -0.215002D+00
     14  -0.761492D+00
     15   0.175104D-01
     16  -0.446655D+00
 1\1\GINC-NODE042\SP\RM062X TD-FC\3-21G*\C19H11F1N2O3\SGOOMAR1\11-Aug-2
 025\0\\#p td=(nstates=3,50-50) m062x 3-21g* guess=read geom=check inte
 gral=ultrafine nosymm\\title\\0,1\F,0,2.0391432627,-0.40363287,0.74579
 11679\C,0,0.69712759,-0.2559423301,0.5630494455\C,0,0.1646515635,-0.39
 49103258,-0.7061897002\C,0,-1.2012413136,-0.2394049076,-0.8943306283\C
 ,0,-2.0341071102,0.0620166628,0.1868989627\C,0,-1.474620175,0.18261940
 08,1.4641655258\C,0,-0.1114018605,0.0268337566,1.6513292433\C,0,-3.481
 9579901,0.2169435261,0.0142342612\N,0,-4.2926321468,-0.1092502575,0.99
 61430299\O,0,-5.6596954221,0.1910146794,0.5183932879\C,0,-5.53764704,0
 .6865029291,-0.7573196087\C,0,-4.1931820694,0.7359794843,-1.1336928763
 \C,0,-3.8435971479,1.257585256,-2.378177259\C,0,-4.8447905874,1.690007
 6065,-3.231141616\C,0,-6.1900871973,1.6048090665,-2.8313231905\C,0,-6.
 5580184334,1.109458497,-1.5890396842\O,0,-7.2775617145,2.0105709444,-3
 .6166182087\C,0,-7.2192100673,2.5484615136,-4.8895143897\O,0,-6.186088
 6476,2.747644116,-5.5072169749\C,0,-8.575706345,2.840815439,-5.3797750
 131\C,0,-9.7254187365,2.5929478206,-4.6334556636\C,0,-10.9567578754,2.
 9069493012,-5.1926219653\C,0,-10.9914024537,3.454420453,-6.4713816777\
 N,0,-9.8851952974,3.6972001999,-7.1995457961\C,0,-8.7012568387,3.39216
 27746,-6.6541721191\H,0,0.8178536151,-0.6316568328,-1.5291093439\H,0,-
 1.622151374,-0.3837242137,-1.8760223241\H,0,-2.1209543611,0.4034588791
 ,2.2979066427\H,0,0.3329691949,0.1242521985,2.6275318156\H,0,-2.812088
 2231,1.3455071452,-2.6765685667\H,0,-4.6156867516,2.097058437,-4.19569
 1359\H,0,-7.5919412,1.0685809432,-1.2992852749\H,0,-9.6408890014,2.167
 5825053,-3.6485789925\H,0,-11.8726368945,2.7325603576,-4.6520632723\H,
 0,-11.934088619,3.7084068496,-6.9314237513\H,0,-7.8126923317,3.5853509
 949,-7.2348841265\\Version=ES64L-G16RevA.03\HF=-1158.7384878\RMSD=6.70
 2e-09\PG=C01 [X(C19H11F1N2O3)]\\@


 LORD, MAN... WERE YE BUT WHYLES WHERE I AM, 
 THE GENTILES YE WAD NE'ER ENVY 'EM.        
 IT'S TRUE, THEY NEEDNA STARVE OR SWEAT,     
 THRO' WINTER'S CAULD OR SIMMER'S HEAT...  
 THEY'VE NAE SAIR WARK TO CRAZE THEIR BANES, 
 AND FILL AULD AGE WITH GRIPS AN' GRANES...  
                                             
 BUT HUMAN BODIES ARE SIC FOOLS              
 FOR A' THEIR COLLEGES AND SCHOOLS,           
 THAT WHEN NAE REAL ILLS PERPLEX THEM,       
 THEY MAK ENOW THEMSELVES TO VEX THEM,       
 AN' AYE THE LESS THEY HAE TO STURT THEM,    
 IN LIKE PROPORTION LESS WILL HURT THEM....  
                                             
                (ROBERT BURNS 'THE TWA DOGS')
 Job cpu time:       0 days  0 hours 25 minutes 12.2 seconds.
 Elapsed time:       0 days  0 hours  8 minutes 45.3 seconds.
 File lengths (MBytes):  RWF=    576 Int=      0 D2E=      0 Chk=     22 Scr=      1
 Normal termination of Gaussian 16 at Mon Aug 11 17:53:56 2025.
