 Entering Gaussian System, Link 0=g16
 Input=td_ZINC000078665069_09.com
 Output=td_ZINC000078665069_09.log
 Initial command:
 /opt/apps/pkg/applications/licensed/gaussian/v16/x86_64AVX2/g16/l1.exe "/tmp/Gau-1729068.inp" -scrdir="/tmp/"
 Entering Link 1 = /opt/apps/pkg/applications/licensed/gaussian/v16/x86_64AVX2/g16/l1.exe PID=   1729069.
  
 Copyright (c) 1988,1990,1992,1993,1995,1998,2003,2009,2016,
            Gaussian, Inc.  All Rights Reserved.
  
 This is part of the Gaussian(R) 16 program.  It is based on
 the Gaussian(R) 09 system (copyright 2009, Gaussian, Inc.),
 the Gaussian(R) 03 system (copyright 2003, Gaussian, Inc.),
 the Gaussian(R) 98 system (copyright 1998, Gaussian, Inc.),
 the Gaussian(R) 94 system (copyright 1995, Gaussian, Inc.),
 the Gaussian 92(TM) system (copyright 1992, Gaussian, Inc.),
 the Gaussian 90(TM) system (copyright 1990, Gaussian, Inc.),
 the Gaussian 88(TM) system (copyright 1988, Gaussian, Inc.),
 the Gaussian 86(TM) system (copyright 1986, Carnegie Mellon
 University), and the Gaussian 82(TM) system (copyright 1983,
 Carnegie Mellon University). Gaussian is a federally registered
 trademark of Gaussian, Inc.
  
 This software contains proprietary and confidential information,
 including trade secrets, belonging to Gaussian, Inc.
  
 This software is provided under written license and may be
 used, copied, transmitted, or stored only in accord with that
 written license.
  
 The following legend is applicable only to US Government
 contracts under FAR:
  
                    RESTRICTED RIGHTS LEGEND
  
 Use, reproduction and disclosure by the US Government is
 subject to restrictions as set forth in subparagraphs (a)
 and (c) of the Commercial Computer Software - Restricted
 Rights clause in FAR 52.227-19.
  
 Gaussian, Inc.
 340 Quinnipiac St., Bldg. 40, Wallingford CT 06492
  
  
 ---------------------------------------------------------------
 Warning -- This program may not be used in any manner that
 competes with the business of Gaussian, Inc. or will provide
 assistance to any competitor of Gaussian, Inc.  The licensee
 of this program is prohibited from giving any competitor of
 Gaussian, Inc. access to this program.  By using this program,
 the user acknowledges that Gaussian, Inc. is engaged in the
 business of creating and licensing software in the field of
 computational chemistry and represents and warrants to the
 licensee that it is not a competitor of Gaussian, Inc. and that
 it will not use this program in any manner prohibited above.
 ---------------------------------------------------------------
  

 Cite this work as:
 Gaussian 16, Revision A.03,
 M. J. Frisch, G. W. Trucks, H. B. Schlegel, G. E. Scuseria, 
 M. A. Robb, J. R. Cheeseman, G. Scalmani, V. Barone, 
 G. A. Petersson, H. Nakatsuji, X. Li, M. Caricato, A. V. Marenich, 
 J. Bloino, B. G. Janesko, R. Gomperts, B. Mennucci, H. P. Hratchian, 
 J. V. Ortiz, A. F. Izmaylov, J. L. Sonnenberg, D. Williams-Young, 
 F. Ding, F. Lipparini, F. Egidi, J. Goings, B. Peng, A. Petrone, 
 T. Henderson, D. Ranasinghe, V. G. Zakrzewski, J. Gao, N. Rega, 
 G. Zheng, W. Liang, M. Hada, M. Ehara, K. Toyota, R. Fukuda, 
 J. Hasegawa, M. Ishida, T. Nakajima, Y. Honda, O. Kitao, H. Nakai, 
 T. Vreven, K. Throssell, J. A. Montgomery, Jr., J. E. Peralta, 
 F. Ogliaro, M. J. Bearpark, J. J. Heyd, E. N. Brothers, K. N. Kudin, 
 V. N. Staroverov, T. A. Keith, R. Kobayashi, J. Normand, 
 K. Raghavachari, A. P. Rendell, J. C. Burant, S. S. Iyengar, 
 J. Tomasi, M. Cossi, J. M. Millam, M. Klene, C. Adamo, R. Cammi, 
 J. W. Ochterski, R. L. Martin, K. Morokuma, O. Farkas, 
 J. B. Foresman, and D. J. Fox, Gaussian, Inc., Wallingford CT, 2016.
 
 ******************************************
 Gaussian 16:  ES64L-G16RevA.03 25-Dec-2016
                11-Aug-2025 
 ******************************************
 %nproc=4
 Will use up to    4 processors via shared memory.
 %oldchk=ZINC000078665069_09_opt.chk
 %chk=ZINC000078665069_09_td.chk
 Copying data from "ZINC000078665069_09_opt.chk" to current chk file "ZINC000078665069_09_td.chk"
 IOpt=  2 FromEx=T IUOpen= 4 IOptOp= 5 NList=   0 IFRang= 0 IUIn= 4 IUOut= 2.
 ----------------------------------------------------------------------
 #p td=(nstates=3,50-50) m062x 3-21g* guess=read geom=check integral=ul
 trafine nosymm
 ----------------------------------------------------------------------
 1/29=2,38=1,172=1/1;
 2/12=2,15=1,40=1/2;
 3/5=5,7=1,11=9,14=-4,25=1,30=1,74=-55,75=-5,116=-2/1,2,3,8;
 4/5=1/1;
 5/5=2,38=6/2;
 8/6=1,10=1,108=3/1;
 9/41=3,42=1,48=2,70=2/14;
 6/7=2,8=2,9=2,10=2/1;
 99/5=1,9=1/99;
 Leave Link    1 at Mon Aug 11 12:28:23 2025, MaxMem=  2147483648 cpu:               0.2 elap:               0.1
 (Enter /opt/apps/pkg/applications/licensed/gaussian/v16/x86_64AVX2/g16/l101.exe)
 -----
 title
 -----
 Structure from the checkpoint file:  "ZINC000078665069_09_td.chk"
 Charge =  0 Multiplicity = 1
 Redundant internal coordinates found in file.  (old form).
 C,0,10.0924207355,1.5695931683,4.7872709202
 S,0,9.1404602678,2.1833476576,6.2114664117
 C,0,8.0431345327,3.2995709348,5.3921366361
 C,0,7.0992096268,4.0063997742,6.1463615604
 C,0,6.2470550977,4.8870175812,5.5068936416
 C,0,6.3370328217,5.0281725165,4.1171951955
 C,0,7.293535991,4.2803113026,3.444154731
 N,0,8.1395042074,3.4452408271,4.0650744848
 N,0,5.5027452476,5.9312062976,3.3898534629
 S,0,3.8624562048,5.9079211556,3.3927218474
 O,0,3.4114804554,6.4698848841,2.1347424504
 O,0,3.4313066466,4.6212053903,3.8871334951
 C,0,3.4572895906,7.1207159666,4.5722963206
 C,0,2.7478097663,8.2774161216,4.4873215541
 C,0,2.7369075547,8.8473592691,5.8016959348
 C,0,3.4443055779,8.0070599302,6.6044816778
 O,0,3.898162291,6.9228754804,5.8704380656
 C,0,3.7645689841,8.115582147,8.0178299568
 O,0,3.3933677289,9.024210521,8.7439960231
 O,0,4.5419638921,7.0734029734,8.4254274295
 C,0,4.9178076007,7.0868126491,9.8470586961
 H,0,10.8213685917,0.8651765686,5.184324873
 H,0,10.5938558889,2.3928651512,4.2871831513
 H,0,9.4335123677,1.074163078,4.08030715
 H,0,7.049309437,3.8703923466,7.2146602861
 H,0,5.5318651602,5.4639311165,6.0700605348
 H,0,7.3827669252,4.3586696229,2.3703360661
 H,0,5.9282701556,6.5274557288,2.687830014
 H,0,2.2931131149,8.6646483865,3.5983242147
 H,0,2.2729648811,9.7614558071,6.1136538723
 H,0,5.5100716953,6.189541706,9.9824028541
 H,0,4.028409542,7.0694295937,10.4731608686
 H,0,5.4963774189,7.9790143457,10.0768256195
 Recover connectivity data from disk.
 ITRead=  0  0  0  0  0  0  0  0  0  0  0  0  0  0  0  0  0  0  0  0
 ITRead=  0  0  0  0  0  0  0  0  0  0  0  0  0
 MicOpt= -1 -1 -1 -1 -1 -1 -1 -1 -1 -1 -1 -1 -1 -1 -1 -1 -1 -1 -1 -1
 MicOpt= -1 -1 -1 -1 -1 -1 -1 -1 -1 -1 -1 -1 -1
                           ----------------------------
                           !    Current Parameters    !
                           ! (Angstroms and Degrees)  !
 --------------------------                            --------------------------
 ! Name  Definition              Value                                          !
 --------------------------------------------------------------------------------
 ! R1    R(1,2)                  1.8197                                         !
 ! R2    R(1,22)                 1.0887                                         !
 ! R3    R(1,23)                 1.086                                          !
 ! R4    R(1,24)                 1.086                                          !
 ! R5    R(2,3)                  1.7667                                         !
 ! R6    R(3,4)                  1.3998                                         !
 ! R7    R(3,8)                  1.3385                                         !
 ! R8    R(4,5)                  1.3822                                         !
 ! R9    R(4,25)                 1.0781                                         !
 ! R10   R(5,6)                  1.3997                                         !
 ! R11   R(5,26)                 1.0777                                         !
 ! R12   R(6,7)                  1.3882                                         !
 ! R13   R(6,9)                  1.4285                                         !
 ! R14   R(7,8)                  1.3411                                         !
 ! R15   R(7,27)                 1.0804                                         !
 ! R16   R(9,10)                 1.6405                                         !
 ! R17   R(9,28)                 1.0146                                         !
 ! R18   R(10,11)                1.4497                                         !
 ! R19   R(10,12)                1.4443                                         !
 ! R20   R(10,13)                1.7397                                         !
 ! R21   R(13,14)                1.3596                                         !
 ! R22   R(13,17)                1.3852                                         !
 ! R23   R(14,15)                1.4327                                         !
 ! R24   R(14,29)                1.071                                          !
 ! R25   R(15,16)                1.3605                                         !
 ! R26   R(15,30)                1.0715                                         !
 ! R27   R(16,17)                1.3857                                         !
 ! R28   R(16,18)                1.4532                                         !
 ! R29   R(18,19)                1.2209                                         !
 ! R30   R(18,20)                1.3626                                         !
 ! R31   R(20,21)                1.4705                                         !
 ! R32   R(21,31)                1.0836                                         !
 ! R33   R(21,32)                1.0878                                         !
 ! R34   R(21,33)                1.0879                                         !
 ! A1    A(2,1,22)             106.4438                                         !
 ! A2    A(2,1,23)             110.2599                                         !
 ! A3    A(2,1,24)             110.2401                                         !
 ! A4    A(22,1,23)            110.4448                                         !
 ! A5    A(22,1,24)            110.395                                          !
 ! A6    A(23,1,24)            109.0395                                         !
 ! A7    A(1,2,3)              100.0823                                         !
 ! A8    A(2,3,4)              119.2077                                         !
 ! A9    A(2,3,8)              118.9356                                         !
 ! A10   A(4,3,8)              121.8567                                         !
 ! A11   A(3,4,5)              119.2194                                         !
 ! A12   A(3,4,25)             120.0946                                         !
 ! A13   A(5,4,25)             120.6822                                         !
 ! A14   A(4,5,6)              118.9424                                         !
 ! A15   A(4,5,26)             120.5582                                         !
 ! A16   A(6,5,26)             120.4961                                         !
 ! A17   A(5,6,7)              118.119                                          !
 ! A18   A(5,6,9)              122.1222                                         !
 ! A19   A(7,6,9)              119.7431                                         !
 ! A20   A(6,7,8)              123.0661                                         !
 ! A21   A(6,7,27)             119.9813                                         !
 ! A22   A(8,7,27)             116.9524                                         !
 ! A23   A(3,8,7)              118.7758                                         !
 ! A24   A(6,9,10)             125.0379                                         !
 ! A25   A(6,9,28)             118.6113                                         !
 ! A26   A(10,9,28)            115.3983                                         !
 ! A27   A(9,10,11)            107.6996                                         !
 ! A28   A(9,10,12)            108.1638                                         !
 ! A29   A(9,10,13)            102.9538                                         !
 ! A30   A(11,10,12)           123.3346                                         !
 ! A31   A(11,10,13)           104.2221                                         !
 ! A32   A(12,10,13)           108.6296                                         !
 ! A33   A(10,13,14)           132.2415                                         !
 ! A34   A(10,13,17)           117.5001                                         !
 ! A35   A(14,13,17)           110.2534                                         !
 ! A36   A(13,14,15)           106.5637                                         !
 ! A37   A(13,14,29)           125.523                                          !
 ! A38   A(15,14,29)           127.9132                                         !
 ! A39   A(14,15,16)           106.9585                                         !
 ! A40   A(14,15,30)           127.573                                          !
 ! A41   A(16,15,30)           125.4674                                         !
 ! A42   A(15,16,17)           109.9355                                         !
 ! A43   A(15,16,18)           129.9659                                         !
 ! A44   A(17,16,18)           120.0941                                         !
 ! A45   A(13,17,16)           106.2867                                         !
 ! A46   A(16,18,19)           124.5415                                         !
 ! A47   A(16,18,20)           111.0721                                         !
 ! A48   A(19,18,20)           124.385                                          !
 ! A49   A(18,20,21)           115.3428                                         !
 ! A50   A(20,21,31)           104.6487                                         !
 ! A51   A(20,21,32)           110.3228                                         !
 ! A52   A(20,21,33)           110.3392                                         !
 ! A53   A(31,21,32)           111.2081                                         !
 ! A54   A(31,21,33)           111.2248                                         !
 ! A55   A(32,21,33)           109.048                                          !
 ! D1    D(22,1,2,3)           179.4869                                         !
 ! D2    D(23,1,2,3)            59.6744                                         !
 ! D3    D(24,1,2,3)           -60.7713                                         !
 ! D4    D(1,2,3,4)            179.6174                                         !
 ! D5    D(1,2,3,8)             -0.4104                                         !
 ! D6    D(2,3,4,5)            179.5339                                         !
 ! D7    D(2,3,4,25)             0.2373                                         !
 ! D8    D(8,3,4,5)             -0.4375                                         !
 ! D9    D(8,3,4,25)          -179.7341                                         !
 ! D10   D(2,3,8,7)            179.1468                                         !
 ! D11   D(4,3,8,7)             -0.8818                                         !
 ! D12   D(3,4,5,6)              1.1568                                         !
 ! D13   D(3,4,5,26)          -178.1842                                         !
 ! D14   D(25,4,5,6)          -179.5509                                         !
 ! D15   D(25,4,5,26)            1.1081                                         !
 ! D16   D(4,5,6,7)             -0.5877                                         !
 ! D17   D(4,5,6,9)           -179.1453                                         !
 ! D18   D(26,5,6,7)           178.7537                                         !
 ! D19   D(26,5,6,9)             0.1961                                         !
 ! D20   D(5,6,7,8)             -0.7661                                         !
 ! D21   D(5,6,7,27)           179.4065                                         !
 ! D22   D(9,6,7,8)            177.827                                          !
 ! D23   D(9,6,7,27)            -2.0004                                         !
 ! D24   D(5,6,9,10)           -57.4866                                         !
 ! D25   D(5,6,9,28)           134.2225                                         !
 ! D26   D(7,6,9,10)           123.9786                                         !
 ! D27   D(7,6,9,28)           -44.3124                                         !
 ! D28   D(6,7,8,3)              1.5017                                         !
 ! D29   D(27,7,8,3)          -178.6661                                         !
 ! D30   D(6,9,10,11)         -152.8416                                         !
 ! D31   D(6,9,10,12)          -17.4612                                         !
 ! D32   D(6,9,10,13)           97.4016                                         !
 ! D33   D(28,9,10,11)          15.7838                                         !
 ! D34   D(28,9,10,12)         151.1642                                         !
 ! D35   D(28,9,10,13)         -93.973                                          !
 ! D36   D(9,10,13,14)         119.8307                                         !
 ! D37   D(9,10,13,17)         -61.0754                                         !
 ! D38   D(11,10,13,14)          7.4891                                         !
 ! D39   D(11,10,13,17)       -173.417                                          !
 ! D40   D(12,10,13,14)       -125.6435                                         !
 ! D41   D(12,10,13,17)         53.4505                                         !
 ! D42   D(10,13,14,15)        179.1811                                         !
 ! D43   D(10,13,14,29)         -0.6927                                         !
 ! D44   D(17,13,14,15)          0.0377                                         !
 ! D45   D(17,13,14,29)       -179.8361                                         !
 ! D46   D(10,13,17,16)       -179.5961                                         !
 ! D47   D(14,13,17,16)         -0.3111                                         !
 ! D48   D(13,14,15,16)          0.2564                                         !
 ! D49   D(13,14,15,30)        179.8832                                         !
 ! D50   D(29,14,15,16)       -179.8738                                         !
 ! D51   D(29,14,15,30)         -0.247                                          !
 ! D52   D(14,15,16,17)         -0.4575                                         !
 ! D53   D(14,15,16,18)        178.7521                                         !
 ! D54   D(30,15,16,17)        179.9057                                         !
 ! D55   D(30,15,16,18)         -0.8847                                         !
 ! D56   D(15,16,17,13)          0.4786                                         !
 ! D57   D(18,16,17,13)       -178.8212                                         !
 ! D58   D(15,16,18,19)          1.8623                                         !
 ! D59   D(15,16,18,20)       -177.7398                                         !
 ! D60   D(17,16,18,19)       -178.9965                                         !
 ! D61   D(17,16,18,20)          1.4014                                         !
 ! D62   D(16,18,20,21)       -179.7381                                         !
 ! D63   D(19,18,20,21)          0.659                                          !
 ! D64   D(18,20,21,31)        179.1588                                         !
 ! D65   D(18,20,21,32)         59.4534                                         !
 ! D66   D(18,20,21,33)        -61.1077                                         !
 --------------------------------------------------------------------------------
 NAtoms=     33 NQM=       33 NQMF=       0 NMMI=      0 NMMIF=      0
                NMic=       0 NMicF=      0.
                    Isotopes and Nuclear Properties:
 (Nuclear quadrupole moments (NQMom) in fm**2, nuclear magnetic moments (NMagM)
  in nuclear magnetons)

  Atom         1           2           3           4           5           6           7           8           9          10
 IAtWgt=          12          32          12          12          12          12          12          14          14          32
 AtmWgt=  12.0000000  31.9720718  12.0000000  12.0000000  12.0000000  12.0000000  12.0000000  14.0030740  14.0030740  31.9720718
 NucSpn=           0           0           0           0           0           0           0           2           2           0
 AtZEff=   3.6000000  13.6000000   3.6000000   3.6000000   3.6000000   3.6000000   3.6000000   4.5500000   4.5500000  13.6000000
 NQMom=    0.0000000   0.0000000   0.0000000   0.0000000   0.0000000   0.0000000   0.0000000   2.0440000   2.0440000   0.0000000
 NMagM=    0.0000000   0.0000000   0.0000000   0.0000000   0.0000000   0.0000000   0.0000000   0.4037610   0.4037610   0.0000000
 AtZNuc=   6.0000000  16.0000000   6.0000000   6.0000000   6.0000000   6.0000000   6.0000000   7.0000000   7.0000000  16.0000000

  Atom        11          12          13          14          15          16          17          18          19          20
 IAtWgt=          16          16          12          12          12          12          16          12          16          16
 AtmWgt=  15.9949146  15.9949146  12.0000000  12.0000000  12.0000000  12.0000000  15.9949146  12.0000000  15.9949146  15.9949146
 NucSpn=           0           0           0           0           0           0           0           0           0           0
 AtZEff=   5.6000000   5.6000000   3.6000000   3.6000000   3.6000000   3.6000000   5.6000000   3.6000000   5.6000000   5.6000000
 NQMom=    0.0000000   0.0000000   0.0000000   0.0000000   0.0000000   0.0000000   0.0000000   0.0000000   0.0000000   0.0000000
 NMagM=    0.0000000   0.0000000   0.0000000   0.0000000   0.0000000   0.0000000   0.0000000   0.0000000   0.0000000   0.0000000
 AtZNuc=   8.0000000   8.0000000   6.0000000   6.0000000   6.0000000   6.0000000   8.0000000   6.0000000   8.0000000   8.0000000

  Atom        21          22          23          24          25          26          27          28          29          30
 IAtWgt=          12           1           1           1           1           1           1           1           1           1
 AtmWgt=  12.0000000   1.0078250   1.0078250   1.0078250   1.0078250   1.0078250   1.0078250   1.0078250   1.0078250   1.0078250
 NucSpn=           0           1           1           1           1           1           1           1           1           1
 AtZEff=   3.6000000   1.0000000   1.0000000   1.0000000   1.0000000   1.0000000   1.0000000   1.0000000   1.0000000   1.0000000
 NQMom=    0.0000000   0.0000000   0.0000000   0.0000000   0.0000000   0.0000000   0.0000000   0.0000000   0.0000000   0.0000000
 NMagM=    0.0000000   2.7928460   2.7928460   2.7928460   2.7928460   2.7928460   2.7928460   2.7928460   2.7928460   2.7928460
 AtZNuc=   6.0000000   1.0000000   1.0000000   1.0000000   1.0000000   1.0000000   1.0000000   1.0000000   1.0000000   1.0000000

  Atom        31          32          33
 IAtWgt=           1           1           1
 AtmWgt=   1.0078250   1.0078250   1.0078250
 NucSpn=           1           1           1
 AtZEff=   1.0000000   1.0000000   1.0000000
 NQMom=    0.0000000   0.0000000   0.0000000
 NMagM=    2.7928460   2.7928460   2.7928460
 AtZNuc=   1.0000000   1.0000000   1.0000000
 Leave Link  101 at Mon Aug 11 12:28:23 2025, MaxMem=  2147483648 cpu:               0.5 elap:               0.2
 (Enter /opt/apps/pkg/applications/licensed/gaussian/v16/x86_64AVX2/g16/l202.exe)
                          Input orientation:                          
 ---------------------------------------------------------------------
 Center     Atomic      Atomic             Coordinates (Angstroms)
 Number     Number       Type             X           Y           Z
 ---------------------------------------------------------------------
      1          6           0       10.092421    1.569593    4.787271
      2         16           0        9.140460    2.183348    6.211466
      3          6           0        8.043135    3.299571    5.392137
      4          6           0        7.099210    4.006400    6.146362
      5          6           0        6.247055    4.887018    5.506894
      6          6           0        6.337033    5.028173    4.117195
      7          6           0        7.293536    4.280311    3.444155
      8          7           0        8.139504    3.445241    4.065074
      9          7           0        5.502745    5.931206    3.389853
     10         16           0        3.862456    5.907921    3.392722
     11          8           0        3.411480    6.469885    2.134742
     12          8           0        3.431307    4.621205    3.887133
     13          6           0        3.457290    7.120716    4.572296
     14          6           0        2.747810    8.277416    4.487322
     15          6           0        2.736908    8.847359    5.801696
     16          6           0        3.444306    8.007060    6.604482
     17          8           0        3.898162    6.922875    5.870438
     18          6           0        3.764569    8.115582    8.017830
     19          8           0        3.393368    9.024211    8.743996
     20          8           0        4.541964    7.073403    8.425427
     21          6           0        4.917808    7.086813    9.847059
     22          1           0       10.821369    0.865177    5.184325
     23          1           0       10.593856    2.392865    4.287183
     24          1           0        9.433512    1.074163    4.080307
     25          1           0        7.049309    3.870392    7.214660
     26          1           0        5.531865    5.463931    6.070061
     27          1           0        7.382767    4.358670    2.370336
     28          1           0        5.928270    6.527456    2.687830
     29          1           0        2.293113    8.664648    3.598324
     30          1           0        2.272965    9.761456    6.113654
     31          1           0        5.510072    6.189542    9.982403
     32          1           0        4.028410    7.069430   10.473161
     33          1           0        5.496377    7.979014   10.076826
 ---------------------------------------------------------------------
                    Distance matrix (angstroms):
                    1          2          3          4          5
     1  C    0.000000
     2  S    1.819686   0.000000
     3  C    2.749229   1.766743   0.000000
     4  C    4.092000   2.737601   1.399806   0.000000
     5  C    5.129327   4.022194   2.399804   1.382235   0.000000
     6  C    5.149147   4.509790   2.743050   2.396341   1.399744
     7  C    4.121372   3.932734   2.306162   2.722997   2.391256
     8  N    2.802411   2.683521   1.338507   2.393505   2.781893
     9  N    6.483947   5.936406   4.169919   3.721816   2.475113
    10  S    7.718699   7.048056   5.317821   4.655630   3.346383
    11  O    8.699640   8.235004   6.489509   5.980066   4.681598
    12  O    7.381939   6.628734   5.027992   4.351507   3.259251
    13  C    8.653678   7.704733   6.025219   5.043831   3.694005
    14  C    9.951290   8.998685   7.323803   6.318914   4.977856
    15  C   10.397043   9.251078   7.687766   6.525593   5.300222
    16  C    9.430836   8.155750   6.691746   5.438150   4.335293
    17  O    8.258312   7.075388   5.526111   4.339201   3.129565
    18  C    9.660652   8.206983   6.956605   5.613163   4.784472
    19  O   10.775171   9.286559   8.101036   6.757173   5.978188
    20  O    8.621814   7.068269   5.975019   4.597842   4.025600
    21  C    9.100428   7.422418   6.630023   5.286078   5.044108
    22  H    1.088678   2.370242   3.699736   4.964601   6.099475
    23  H    1.085957   2.420562   2.923904   4.274645   5.157826
    24  H    1.086006   2.420333   2.933682   4.279668   5.169770
    25  H    4.521772   2.868001   2.152932   1.078077   2.143270
    26  H    6.132706   4.878953   3.383860   2.141679   1.077721
    27  H    4.578509   4.751399   3.269412   3.803008   3.377423
    28  H    6.806482   6.450229   4.712236   4.437146   3.277160
    29  H   10.610495   9.783759   8.066261   7.161727   5.791959
    30  H   11.402184  10.227404   8.693181   7.510951   6.318362
    31  H    8.326538   6.591606   5.986558   4.691128   4.719099
    32  H    9.967436   8.256446   7.493107   6.126431   5.860812
    33  H    9.496509   7.861940   7.094327   5.813715   5.568504
                    6          7          8          9         10
     6  C    0.000000
     7  C    1.388228   0.000000
     8  N    2.399436   1.341099   0.000000
     9  N    1.428472   2.436254   3.686251   0.000000
    10  S    2.724399   3.797903   4.980963   1.640457   0.000000
    11  O    3.816741   4.645336   5.935391   2.497772   1.449722
    12  O    2.943093   3.902468   4.856097   2.500849   1.444289
    13  C    3.588701   4.904833   5.974071   2.645183   1.739663
    14  C    4.855626   6.142367   7.252488   3.781376   2.838149
    15  C    5.512226   6.868682   7.834972   4.687301   3.963624
    16  C    4.840272   6.220361   7.021657   4.345133   3.859616
    17  O    3.551317   4.939490   5.774276   3.116311   2.677776
    18  C    5.600412   6.934076   7.521730   5.404713   5.125912
    19  O    6.785335   8.111979   8.691549   6.533222   6.210269
    20  O    5.095695   6.339210   6.717033   5.252116   5.210394
    21  C    6.251683   7.383611   7.554582   6.585824   6.645451
    22  H    6.211165   5.209313   3.886110   7.561252   8.778700
    23  H    5.009419   3.894260   2.679677   6.264540   7.646399
    24  H    5.022324   3.906863   2.701240   6.286376   7.407743
    25  H    3.382615   3.800578   3.359936   4.611720   5.377246
    26  H    2.156818   3.376362   3.859386   2.720791   3.186251
    27  H    2.143201   1.080365   2.068609   2.654575   3.979704
    28  H    2.111403   2.735989   4.035642   1.014604   2.268983
    29  H    5.463192   6.652098   7.851137   4.221007   3.178782
    30  H    6.550303   7.897804   8.860448   5.702752   4.977920
    31  H    6.036001   7.040923   7.032772   6.597613   6.798371
    32  H    7.063623   8.236939   8.432047   7.324101   7.176995
    33  H    6.703086   7.804006   7.980124   6.993508   7.185845
                   11         12         13         14         15
    11  O    0.000000
    12  O    2.547329   0.000000
    13  C    2.523361   2.591848   0.000000
    14  C    3.040108   3.767661   1.359609   0.000000
    15  C    4.421988   4.691281   2.238676   1.432667   0.000000
    16  C    4.726791   4.341447   2.217104   2.245120   1.360507
    17  O    3.794401   3.073945   1.385165   2.251911   2.248750
    18  C    6.119127   5.420737   3.599428   3.677564   2.550066
    19  O    7.085700   6.555685   4.585898   4.369637   3.019826
    20  O    6.419887   5.276641   4.003171   4.491917   3.645424
    21  C    7.882223   6.618883   5.473334   5.903661   4.921464
    22  H    9.778505   8.390678   9.681736  10.982234  11.377825
    23  H    8.534730   7.511834   8.565305   9.809609  10.280364
    24  H    8.316484   6.974618   8.515756   9.836215  10.403378
    25  H    6.767328   4.972534   5.518088   6.735216   6.735241
    26  H    4.581998   3.144472   3.048294   4.262831   4.396748
    27  H    4.503760   4.240712   5.280805   6.428144   7.314819
    28  H    2.577489   3.362580   3.163687   4.051649   5.026222
    29  H    2.865276   4.210502   2.165100   1.070987   2.255035
    30  H    5.287948   5.720255   3.279011   2.252290   1.071510
    31  H    8.128250   6.628216   5.860909   6.495016   5.677389
    32  H    8.382677   7.051673   5.928660   6.239346   5.162518
    33  H    8.348710   7.338371   5.932487   6.235882   5.161921
                   16         17         18         19         20
    16  C    0.000000
    17  O    1.385735   0.000000
    18  C    1.453237   2.460018   0.000000
    19  O    2.369538   3.595520   1.220948   0.000000
    20  O    2.322157   2.639149   1.362577   2.286134   0.000000
    21  C    3.678637   4.108535   2.394662   2.700773   1.470535
    22  H   10.365539   9.224817  10.506929  11.593804   9.406261
    23  H    9.381105   8.237718   9.659523  10.755694   8.698155
    24  H    9.503006   8.249370   9.860151  11.019827   8.876835
    25  H    5.520905   4.588498   5.427360   6.501278   4.244057
    26  H    3.333319   2.199398   3.734755   4.939503   3.019612
    27  H    6.837413   5.564920   7.687648   8.849074   7.218315
    28  H    4.868210   3.795614   5.967633   7.024006   5.927894
    29  H    3.285521   3.282142   4.690276   5.274257   5.557906
    30  H    2.165838   3.279933   2.925691   2.952547   4.209309
    31  H    4.356732   4.477084   3.258214   3.748258   2.035342
    32  H    4.023308   4.606897   2.681920   2.685974   2.111153
    33  H    4.033480   4.622058   2.693933   2.700281   2.111434
                   21         22         23         24         25
    21  C    0.000000
    22  H    9.762268   0.000000
    23  H    9.228374   1.786185   0.000000
    24  H    9.476232   1.785686   1.768663   0.000000
    25  H    4.670994   5.232783   4.828770   4.829854   0.000000
    26  H    4.156504   7.064837   6.183352   6.200970   2.480345
    27  H    8.331877   5.652168   4.224900   4.232912   4.880275
    28  H    7.251791   7.888999   6.435873   6.630544   5.367393
    29  H    6.958827  11.665260  10.426511  10.432309   7.660560
    30  H    5.299738  12.372657  11.263630  11.440148   7.663570
    31  H    1.083600   8.920779   8.526145   8.740436   3.925316
    32  H    1.087812  10.611731  10.160790  10.296938   5.475171
    33  H    1.087915  10.143904   9.524144   9.956718   5.242553
                   26         27         28         29         30
    26  H    0.000000
    27  H    4.281986   0.000000
    28  H    3.567591   2.630589   0.000000
    29  H    5.181080   6.778937   4.314042   0.000000
    30  H    5.393612   8.325419   5.962909   2.744135   0.000000
    31  H    3.979122   8.050009   7.314360   7.565146   6.180991
    32  H    4.921920   9.179091   8.032097   7.267693   5.416077
    33  H    4.730864   8.720971   7.542600   7.259613   5.410565
                   31         32         33
    31  H    0.000000
    32  H    1.791750   0.000000
    33  H    1.792014   1.771823   0.000000
 Symmetry turned off by external request.
 Stoichiometry    C12H12N2O5S2
 Framework group  C1[X(C12H12N2O5S2)]
 Deg. of freedom    93
 Full point group                 C1      NOp   1
 Rotational constants (GHZ):           0.3607446           0.1559158           0.1132634
 Leave Link  202 at Mon Aug 11 12:28:23 2025, MaxMem=  2147483648 cpu:               0.1 elap:               0.1
 (Enter /opt/apps/pkg/applications/licensed/gaussian/v16/x86_64AVX2/g16/l301.exe)
 Standard basis: 3-21G* (6D, 7F)
 Ernie: Thresh=  0.10000D-02 Tol=  0.10000D-05 Strict=F.
   233 basis functions,   387 primitive gaussians,   233 cartesian basis functions
    85 alpha electrons       85 beta electrons
       nuclear repulsion energy      1967.2367819727 Hartrees.
 IExCor= 4336 DFT=T Ex+Corr=M062X ExCW=0 ScaHFX=  0.540000
 ScaDFX=  1.000000  1.000000  1.000000  1.000000 ScalE2=  1.000000  1.000000
 IRadAn=      5 IRanWt=     -1 IRanGd=            0 ICorTp=0 IEmpDi=  4
 NAtoms=   33 NActive=   33 NUniq=   33 SFac= 1.00D+00 NAtFMM=   60 NAOKFM=F Big=F
 Integral buffers will be    131072 words long.
 Regular integral format.
 Two-electron integral symmetry is turned off.
 Leave Link  301 at Mon Aug 11 12:28:23 2025, MaxMem=  2147483648 cpu:               0.1 elap:               0.0
 (Enter /opt/apps/pkg/applications/licensed/gaussian/v16/x86_64AVX2/g16/l302.exe)
 NPDir=0 NMtPBC=     1 NCelOv=     1 NCel=       1 NClECP=     1 NCelD=      1
         NCelK=      1 NCelE2=     1 NClLst=     1 CellRange=     0.0.
 One-electron integrals computed using PRISM.
 NBasis=   233 RedAO= T EigKep=  2.36D-03  NBF=   233
 NBsUse=   233 1.00D-06 EigRej= -1.00D+00 NBFU=   233
 Precomputing XC quadrature grid using
 IXCGrd= 4 IRadAn=           5 IRanWt=          -1 IRanGd=           0 AccXCQ= 0.00D+00.
 Generated NRdTot=       0 NPtTot=           0 NUsed=           0 NTot=          32
 NSgBfM=   228   228   228   228   228 MxSgAt=    33 MxSgA2=    33.
 Leave Link  302 at Mon Aug 11 12:28:24 2025, MaxMem=  2147483648 cpu:               1.6 elap:               0.8
 (Enter /opt/apps/pkg/applications/licensed/gaussian/v16/x86_64AVX2/g16/l303.exe)
 DipDrv:  MaxL=1.
 Leave Link  303 at Mon Aug 11 12:28:24 2025, MaxMem=  2147483648 cpu:               0.0 elap:               0.0
 (Enter /opt/apps/pkg/applications/licensed/gaussian/v16/x86_64AVX2/g16/l308.exe)
 Leave Link  308 at Mon Aug 11 12:28:24 2025, MaxMem=  2147483648 cpu:               0.1 elap:               0.0
 (Enter /opt/apps/pkg/applications/licensed/gaussian/v16/x86_64AVX2/g16/l401.exe)
 Initial guess from the checkpoint file:  "ZINC000078665069_09_td.chk"
 B after Tr=     0.000000    0.000000    0.000000
         Rot=    1.000000    0.000000    0.000000    0.000000 Ang=   0.00 deg.
 Guess basis will be translated and rotated to current coordinates.
 JPrj=2 DoOrth=T DoCkMO=T.
 Leave Link  401 at Mon Aug 11 12:28:24 2025, MaxMem=  2147483648 cpu:               1.1 elap:               0.6
 (Enter /opt/apps/pkg/applications/licensed/gaussian/v16/x86_64AVX2/g16/l502.exe)
 Keep R1 ints in memory in canonical form, NReq=378002315.
 FoFCou: FMM=F IPFlag=           0 FMFlag=           0 FMFlg1=           0
         NFxFlg=           0 DoJE=F BraDBF=F KetDBF=F FulRan=T
         wScrn=  0.000000 ICntrl=       600 IOpCl=  0 I1Cent=           0 NGrid=           0
         NMat0=    1 NMatS0=  27261 NMatT0=    0 NMatD0=    1 NMtDS0=    0 NMtDT0=    0
 Symmetry not used in FoFCou.
 Two-electron integral symmetry not used.
 Closed shell SCF:
 Using DIIS extrapolation, IDIIS=  1040.
 NGot=  2147483648 LenX=  1775776621 LenY=  1775721891
 Requested convergence on RMS density matrix=1.00D-08 within 128 cycles.
 Requested convergence on MAX density matrix=1.00D-06.
 Requested convergence on             energy=1.00D-06.
 No special actions if energy rises.

 Cycle   1  Pass 1  IDiag  1:
 E= -1737.02244332533    
 DIIS: error= 8.84D-03 at cycle   1 NSaved=   1.
 NSaved= 1 IEnMin= 1 EnMin= -1737.02244332533     IErMin= 1 ErrMin= 8.84D-03
 ErrMax= 8.84D-03  0.00D+00 EMaxC= 1.00D-01 BMatC= 2.63D-02 BMatP= 2.63D-02
 IDIUse=3 WtCom= 9.12D-01 WtEn= 8.84D-02
 Coeff-Com:  0.100D+01
 Coeff-En:   0.100D+01
 Coeff:      0.100D+01
 Gap=     0.233 Goal=   None    Shift=    0.000
 GapD=    0.233 DampG=1.000 DampE=1.000 DampFc=1.0000 IDamp=-1.
 RMSDP=8.66D-04 MaxDP=3.43D-02              OVMax= 9.14D-03

 Cycle   2  Pass 1  IDiag  1:
 E= -1737.03045640064     Delta-E=       -0.008013075306 Rises=F Damp=F
 DIIS: error= 3.88D-03 at cycle   2 NSaved=   2.
 NSaved= 2 IEnMin= 2 EnMin= -1737.03045640064     IErMin= 2 ErrMin= 3.88D-03
 ErrMax= 3.88D-03  0.00D+00 EMaxC= 1.00D-01 BMatC= 3.52D-03 BMatP= 2.63D-02
 IDIUse=3 WtCom= 9.61D-01 WtEn= 3.88D-02
 Coeff-Com:  0.176D+00 0.824D+00
 Coeff-En:   0.000D+00 0.100D+01
 Coeff:      0.169D+00 0.831D+00
 Gap=     0.227 Goal=   None    Shift=    0.000
 RMSDP=3.59D-04 MaxDP=1.03D-02 DE=-8.01D-03 OVMax= 9.81D-03

 Cycle   3  Pass 1  IDiag  1:
 E= -1737.03120718724     Delta-E=       -0.000750786601 Rises=F Damp=F
 DIIS: error= 2.74D-03 at cycle   3 NSaved=   3.
 NSaved= 3 IEnMin= 3 EnMin= -1737.03120718724     IErMin= 3 ErrMin= 2.74D-03
 ErrMax= 2.74D-03  0.00D+00 EMaxC= 1.00D-01 BMatC= 2.15D-03 BMatP= 3.52D-03
 IDIUse=3 WtCom= 9.73D-01 WtEn= 2.74D-02
 Coeff-Com:  0.267D-03 0.436D+00 0.563D+00
 Coeff-En:   0.000D+00 0.399D+00 0.601D+00
 Coeff:      0.260D-03 0.435D+00 0.564D+00
 Gap=     0.227 Goal=   None    Shift=    0.000
 RMSDP=1.96D-04 MaxDP=5.52D-03 DE=-7.51D-04 OVMax= 5.72D-03

 Cycle   4  Pass 1  IDiag  1:
 E= -1737.03260191325     Delta-E=       -0.001394726014 Rises=F Damp=F
 DIIS: error= 4.80D-04 at cycle   4 NSaved=   4.
 NSaved= 4 IEnMin= 4 EnMin= -1737.03260191325     IErMin= 4 ErrMin= 4.80D-04
 ErrMax= 4.80D-04  0.00D+00 EMaxC= 1.00D-01 BMatC= 7.96D-05 BMatP= 2.15D-03
 IDIUse=3 WtCom= 9.95D-01 WtEn= 4.80D-03
 Coeff-Com: -0.614D-02 0.156D+00 0.270D+00 0.580D+00
 Coeff-En:   0.000D+00 0.000D+00 0.000D+00 0.100D+01
 Coeff:     -0.611D-02 0.155D+00 0.269D+00 0.582D+00
 Gap=     0.228 Goal=   None    Shift=    0.000
 RMSDP=4.31D-05 MaxDP=1.22D-03 DE=-1.39D-03 OVMax= 1.32D-03

 Cycle   5  Pass 1  IDiag  1:
 E= -1737.03266678839     Delta-E=       -0.000064875144 Rises=F Damp=F
 DIIS: error= 1.45D-04 at cycle   5 NSaved=   5.
 NSaved= 5 IEnMin= 5 EnMin= -1737.03266678839     IErMin= 5 ErrMin= 1.45D-04
 ErrMax= 1.45D-04  0.00D+00 EMaxC= 1.00D-01 BMatC= 3.91D-06 BMatP= 7.96D-05
 IDIUse=3 WtCom= 9.99D-01 WtEn= 1.45D-03
 Coeff-Com: -0.294D-02 0.560D-01 0.108D+00 0.281D+00 0.558D+00
 Coeff-En:   0.000D+00 0.000D+00 0.000D+00 0.000D+00 0.100D+01
 Coeff:     -0.294D-02 0.559D-01 0.108D+00 0.281D+00 0.559D+00
 Gap=     0.229 Goal=   None    Shift=    0.000
 RMSDP=9.85D-06 MaxDP=2.40D-04 DE=-6.49D-05 OVMax= 4.28D-04

 Cycle   6  Pass 1  IDiag  1:
 E= -1737.03266988612     Delta-E=       -0.000003097723 Rises=F Damp=F
 DIIS: error= 4.42D-05 at cycle   6 NSaved=   6.
 NSaved= 6 IEnMin= 6 EnMin= -1737.03266988612     IErMin= 6 ErrMin= 4.42D-05
 ErrMax= 4.42D-05  0.00D+00 EMaxC= 1.00D-01 BMatC= 3.47D-07 BMatP= 3.91D-06
 IDIUse=1 WtCom= 1.00D+00 WtEn= 0.00D+00
 Coeff-Com: -0.333D-03-0.687D-03 0.321D-02 0.237D-01 0.229D+00 0.745D+00
 Coeff:     -0.333D-03-0.687D-03 0.321D-02 0.237D-01 0.229D+00 0.745D+00
 Gap=     0.229 Goal=   None    Shift=    0.000
 RMSDP=3.40D-06 MaxDP=5.64D-05 DE=-3.10D-06 OVMax= 1.52D-04

 Cycle   7  Pass 1  IDiag  1:
 E= -1737.03267015578     Delta-E=       -0.000000269664 Rises=F Damp=F
 DIIS: error= 2.62D-05 at cycle   7 NSaved=   7.
 NSaved= 7 IEnMin= 7 EnMin= -1737.03267015578     IErMin= 7 ErrMin= 2.62D-05
 ErrMax= 2.62D-05  0.00D+00 EMaxC= 1.00D-01 BMatC= 6.90D-08 BMatP= 3.47D-07
 IDIUse=1 WtCom= 1.00D+00 WtEn= 0.00D+00
 Coeff-Com:  0.126D-03-0.601D-02-0.934D-02-0.162D-01 0.696D-01 0.384D+00
 Coeff-Com:  0.577D+00
 Coeff:      0.126D-03-0.601D-02-0.934D-02-0.162D-01 0.696D-01 0.384D+00
 Coeff:      0.577D+00
 Gap=     0.229 Goal=   None    Shift=    0.000
 RMSDP=1.40D-06 MaxDP=3.75D-05 DE=-2.70D-07 OVMax= 1.01D-04

 Cycle   8  Pass 1  IDiag  1:
 E= -1737.03267021642     Delta-E=       -0.000000060635 Rises=F Damp=F
 DIIS: error= 6.45D-06 at cycle   8 NSaved=   8.
 NSaved= 8 IEnMin= 8 EnMin= -1737.03267021642     IErMin= 8 ErrMin= 6.45D-06
 ErrMax= 6.45D-06  0.00D+00 EMaxC= 1.00D-01 BMatC= 7.34D-09 BMatP= 6.90D-08
 IDIUse=1 WtCom= 1.00D+00 WtEn= 0.00D+00
 Coeff-Com:  0.721D-04-0.169D-02-0.319D-02-0.777D-02-0.291D-02 0.192D-01
 Coeff-Com:  0.246D+00 0.751D+00
 Coeff:      0.721D-04-0.169D-02-0.319D-02-0.777D-02-0.291D-02 0.192D-01
 Coeff:      0.246D+00 0.751D+00
 Gap=     0.229 Goal=   None    Shift=    0.000
 RMSDP=6.59D-07 MaxDP=2.23D-05 DE=-6.06D-08 OVMax= 2.68D-05

 Cycle   9  Pass 1  IDiag  1:
 E= -1737.03267022381     Delta-E=       -0.000000007396 Rises=F Damp=F
 DIIS: error= 1.56D-06 at cycle   9 NSaved=   9.
 NSaved= 9 IEnMin= 9 EnMin= -1737.03267022381     IErMin= 9 ErrMin= 1.56D-06
 ErrMax= 1.56D-06  0.00D+00 EMaxC= 1.00D-01 BMatC= 1.23D-09 BMatP= 7.34D-09
 IDIUse=1 WtCom= 1.00D+00 WtEn= 0.00D+00
 Coeff-Com:  0.276D-04-0.131D-03-0.526D-03-0.227D-02-0.120D-01-0.499D-01
 Coeff-Com:  0.508D-01 0.384D+00 0.630D+00
 Coeff:      0.276D-04-0.131D-03-0.526D-03-0.227D-02-0.120D-01-0.499D-01
 Coeff:      0.508D-01 0.384D+00 0.630D+00
 Gap=     0.229 Goal=   None    Shift=    0.000
 RMSDP=2.14D-07 MaxDP=4.19D-06 DE=-7.40D-09 OVMax= 1.26D-05

 Cycle  10  Pass 1  IDiag  1:
 E= -1737.03267022526     Delta-E=       -0.000000001444 Rises=F Damp=F
 DIIS: error= 7.90D-07 at cycle  10 NSaved=  10.
 NSaved=10 IEnMin=10 EnMin= -1737.03267022526     IErMin=10 ErrMin= 7.90D-07
 ErrMax= 7.90D-07  0.00D+00 EMaxC= 1.00D-01 BMatC= 1.15D-10 BMatP= 1.23D-09
 IDIUse=1 WtCom= 1.00D+00 WtEn= 0.00D+00
 Coeff-Com: -0.333D-06 0.239D-03 0.352D-03 0.449D-03-0.406D-02-0.241D-01
 Coeff-Com: -0.170D-01 0.282D-01 0.236D+00 0.779D+00
 Coeff:     -0.333D-06 0.239D-03 0.352D-03 0.449D-03-0.406D-02-0.241D-01
 Coeff:     -0.170D-01 0.282D-01 0.236D+00 0.779D+00
 Gap=     0.229 Goal=   None    Shift=    0.000
 RMSDP=8.68D-08 MaxDP=1.64D-06 DE=-1.44D-09 OVMax= 5.39D-06

 Cycle  11  Pass 1  IDiag  1:
 E= -1737.03267022538     Delta-E=       -0.000000000127 Rises=F Damp=F
 DIIS: error= 2.35D-07 at cycle  11 NSaved=  11.
 NSaved=11 IEnMin=11 EnMin= -1737.03267022538     IErMin=11 ErrMin= 2.35D-07
 ErrMax= 2.35D-07  0.00D+00 EMaxC= 1.00D-01 BMatC= 2.31D-11 BMatP= 1.15D-10
 IDIUse=1 WtCom= 1.00D+00 WtEn= 0.00D+00
 Coeff-Com: -0.408D-05 0.140D-03 0.256D-03 0.565D-03-0.197D-03-0.516D-02
 Coeff-Com: -0.133D-01-0.398D-01 0.358D-01 0.375D+00 0.646D+00
 Coeff:     -0.408D-05 0.140D-03 0.256D-03 0.565D-03-0.197D-03-0.516D-02
 Coeff:     -0.133D-01-0.398D-01 0.358D-01 0.375D+00 0.646D+00
 Gap=     0.229 Goal=   None    Shift=    0.000
 RMSDP=2.99D-08 MaxDP=8.01D-07 DE=-1.27D-10 OVMax= 1.25D-06

 Cycle  12  Pass 1  IDiag  1:
 E= -1737.03267022540     Delta-E=       -0.000000000018 Rises=F Damp=F
 DIIS: error= 1.01D-07 at cycle  12 NSaved=  12.
 NSaved=12 IEnMin=12 EnMin= -1737.03267022540     IErMin=12 ErrMin= 1.01D-07
 ErrMax= 1.01D-07  0.00D+00 EMaxC= 1.00D-01 BMatC= 1.68D-12 BMatP= 2.31D-11
 IDIUse=1 WtCom= 1.00D+00 WtEn= 0.00D+00
 Coeff-Com: -0.110D-05 0.148D-04 0.350D-04 0.119D-03 0.407D-03 0.887D-03
 Coeff-Com: -0.149D-02-0.187D-01-0.126D-01 0.271D-01 0.206D+00 0.798D+00
 Coeff:     -0.110D-05 0.148D-04 0.350D-04 0.119D-03 0.407D-03 0.887D-03
 Coeff:     -0.149D-02-0.187D-01-0.126D-01 0.271D-01 0.206D+00 0.798D+00
 Gap=     0.229 Goal=   None    Shift=    0.000
 RMSDP=9.83D-09 MaxDP=1.62D-07 DE=-1.82D-11 OVMax= 6.37D-07

 SCF Done:  E(RM062X) =  -1737.03267023     A.U. after   12 cycles
            NFock= 12  Conv=0.98D-08     -V/T= 2.0092
 KE= 1.721246825790D+03 PE=-8.013600318852D+03 EE= 2.588084040864D+03
 Leave Link  502 at Mon Aug 11 12:28:50 2025, MaxMem=  2147483648 cpu:              91.0 elap:              25.3
 (Enter /opt/apps/pkg/applications/licensed/gaussian/v16/x86_64AVX2/g16/l801.exe)
 DoSCS=F DFT=T ScalE2(SS,OS)=  1.000000  1.000000
 ExpMin= 1.42D-01 ExpMax= 1.21D+03 ExpMxC= 1.21D+03 IAcc=3 IRadAn=         5 AccDes= 0.00D+00
 HarFok:  IExCor=  205 AccDes= 0.00D+00 IRadAn=         5 IDoV=-2 UseB2=F ITyADJ=14
 ICtDFT= 12500011 ScaDFX=  1.000000  1.000000  1.000000  1.000000
 GSVD:  LWork=       -1073 too small for GESVD, short by        4640 words or        4640 for optimal perf.
 Largest valence mixing into a core orbital is  3.60D-04
 Largest core mixing into a valence orbital is  1.26D-04
 Range of M.O.s used for correlation:    30   233
 NBasis=   233 NAE=    85 NBE=    85 NFC=    29 NFV=     0
 NROrb=    204 NOA=    56 NOB=    56 NVA=   148 NVB=   148
 Leave Link  801 at Mon Aug 11 12:28:50 2025, MaxMem=  2147483648 cpu:               1.3 elap:               0.6
 (Enter /opt/apps/pkg/applications/licensed/gaussian/v16/x86_64AVX2/g16/l914.exe)
 RHF ground state
 Keep R1, R2, and R3 ints in memory in canonical form, NReq=1145301161.
 FoFCou: FMM=F IPFlag=           0 FMFlag=           0 FMFlg1=           0
         NFxFlg=           0 DoJE=F BraDBF=F KetDBF=F FulRan=T
         wScrn=  0.000000 ICntrl=       600 IOpCl=  0 I1Cent=           0 NGrid=           0
         NMat0=    1 NMatS0=  27261 NMatT0=    0 NMatD0=    1 NMtDS0=    0 NMtDT0=    0
 Symmetry not used in FoFCou.
 Two-electron integral symmetry not used.
 MDV=  2147483648 DFT=T DoStab=F Mixed=T DoRPA=T DoScal=F NonHer=T
 Making orbital integer symmetry assigments:
    24 initial guesses have been made.
 Convergence on wavefunction:    0.001000000000000
 Davidson Disk Diagonalization:  ConvIn= 1.00D-03 SkipCon=T Conv= 1.00D-03.
 Max sub-space:  2000 roots to seek:    24 dimension of matrix:        16576
 Iteration     1 Dimension    24 NMult     0 NNew     24
 CISAX will form    24 AO SS matrices at one time.
 NMat=    24 NSing=    12 JSym2X= 0.
 New state      1 was old state     10
 New state      2 was old state      8
 New state      3 was old state      4
 New state      4 was old state      1
 New state      5 was old state     18
 New state      6 was old state      2
 New state      7 was old state     17
 New state      8 was old state     22
 New state      9 was old state      3
 New state     10 was old state     21
 New state     11 was old state      7
 New state     12 was old state     20
 Excitation Energies [eV] at current iteration:
 Root      1 :     4.146938917563304
 Root      2 :     4.466552938358211
 Root      3 :     4.640953167686344
 Root      4 :     4.991549998961693
 Root      5 :     5.001294343047033
 Root      6 :     5.014458585738410
 Root      7 :     5.457477665221909
 Root      8 :     5.545316132200197
 Root      9 :     5.774273674649167
 Root     10 :     5.783312192795744
 Root     11 :     6.059050521820833
 Root     12 :     6.221624025214831
 Root     13 :     6.302610830786033
 Root     14 :     6.433300787340889
 Root     15 :     6.468829348154068
 Root     16 :     6.706708782453298
 Root     17 :     6.835213033461159
 Root     18 :     6.956176825590205
 Root     19 :     7.178962496204206
 Root     20 :     7.194898277314669
 Root     21 :     7.283155729249598
 Root     22 :     7.298643504305860
 Root     23 :     7.324307865951290
 Root     24 :     7.498336368488217
 Vector   5 SDiff=1.33D+00 TDiff=1.58D+00 assumed to be singlet.
 Vector   6 SDiff=5.63D+00 TDiff=2.25D-01 assumed to be triplet.
 Vector  11 SDiff=1.34D+00 TDiff=1.32D+00 assumed to be triplet.
 Vector  12 SDiff=5.62D+00 TDiff=1.87D-01 assumed to be triplet.
 Iteration     2 Dimension    36 NMult    24 NNew     12
 CISAX will form    12 AO SS matrices at one time.
 NMat=    12 NSing=     3 JSym2X= 0.
 Root      1 not converged, maximum delta is    0.097437403868691
 Root      2 not converged, maximum delta is    0.237320369733740
 Root      3 not converged, maximum delta is    0.260510959328979
 Root      4 not converged, maximum delta is    0.044267936762112
 New state      5 was old state      7
 Root      5 not converged, maximum delta is    0.357443620644463
 New state      6 was old state      9
 Root      6 not converged, maximum delta is    0.332279978378358
 Excitation Energies [eV] at current iteration:
 Root      1 :     3.697797275024508   Change is   -0.449141642538797
 Root      2 :     4.130489201639116   Change is   -0.336063736719095
 Root      3 :     4.314643534534198   Change is   -0.326309633152145
 Root      4 :     4.954207753744394   Change is   -0.037342245217299
 Root      5 :     5.211486015639156   Change is   -0.245991649582752
 Root      6 :     5.585846855458935   Change is   -0.188426819190231
 Iteration     3 Dimension    48 NMult    36 NNew     12
 CISAX will form    12 AO SS matrices at one time.
 NMat=    12 NSing=     6 JSym2X= 0.
 DSYEVD-2 returned Info=          97 IAlg= 4 N=    48 NDim=    48 NE2=    21514407 trying  DSYEV.
 Root      1 not converged, maximum delta is    0.021506937998404
 Root      2 not converged, maximum delta is    0.071945532280588
 Root      3 not converged, maximum delta is    0.055020554374154
 Root      4 not converged, maximum delta is    0.020693960965211
 Root      5 not converged, maximum delta is    0.045885529124360
 Root      6 not converged, maximum delta is    0.072004224779375
 Excitation Energies [eV] at current iteration:
 Root      1 :     3.667100571921690   Change is   -0.030696703102818
 Root      2 :     4.068972692145116   Change is   -0.061516509494000
 Root      3 :     4.297983352086630   Change is   -0.016660182447568
 Root      4 :     4.947491245151129   Change is   -0.006716508593266
 Root      5 :     5.023906647743075   Change is   -0.187579367896081
 Root      6 :     5.209590682685910   Change is   -0.376256172773025
 Iteration     4 Dimension    60 NMult    48 NNew     12
 CISAX will form    12 AO SS matrices at one time.
 NMat=    12 NSing=     6 JSym2X= 0.
 Root      1 not converged, maximum delta is    0.025591363288719
 Root      2 not converged, maximum delta is    0.009808104866412
 Root      3 not converged, maximum delta is    0.016089003684607
 Root      4 not converged, maximum delta is    0.015388365284061
 Root      5 not converged, maximum delta is    0.046802729187105
 Root      6 not converged, maximum delta is    0.069404674732929
 Excitation Energies [eV] at current iteration:
 Root      1 :     3.662612508858343   Change is   -0.004488063063346
 Root      2 :     4.065838175053524   Change is   -0.003134517091592
 Root      3 :     4.295716841499391   Change is   -0.002266510587240
 Root      4 :     4.946464487568035   Change is   -0.001026757583094
 Root      5 :     5.002718541979475   Change is   -0.021188105763601
 Root      6 :     5.160051283418907   Change is   -0.049539399267003
 Iteration     5 Dimension    72 NMult    60 NNew     12
 CISAX will form    12 AO SS matrices at one time.
 NMat=    12 NSing=     6 JSym2X= 0.
 Root      1 not converged, maximum delta is    0.011065088344702
 Root      2 not converged, maximum delta is    0.002972230480229
 Root      3 not converged, maximum delta is    0.002570693861678
 Root      4 not converged, maximum delta is    0.003461218100911
 Root      5 not converged, maximum delta is    0.011235873262361
 Root      6 not converged, maximum delta is    0.013042877357837
 Excitation Energies [eV] at current iteration:
 Root      1 :     3.661142943579929   Change is   -0.001469565278414
 Root      2 :     4.065599141349636   Change is   -0.000239033703888
 Root      3 :     4.295512975917103   Change is   -0.000203865582287
 Root      4 :     4.946223886995489   Change is   -0.000240600572546
 Root      5 :     4.998877475559288   Change is   -0.003841066420187
 Root      6 :     5.152359971179388   Change is   -0.007691312239519
 Iteration     6 Dimension    84 NMult    72 NNew     12
 CISAX will form    12 AO SS matrices at one time.
 NMat=    12 NSing=     6 JSym2X= 0.
 Root      1 not converged, maximum delta is    0.002056636359062
 Root      2 has converged.
 Root      3 not converged, maximum delta is    0.001491677819394
 Root      4 not converged, maximum delta is    0.011766593302201
 Root      5 not converged, maximum delta is    0.008428323928940
 Root      6 not converged, maximum delta is    0.281375512598735
 Excitation Energies [eV] at current iteration:
 Root      1 :     3.660954306436254   Change is   -0.000188637143676
 Root      2 :     4.065581918797180   Change is   -0.000017222552455
 Root      3 :     4.295484300592700   Change is   -0.000028675324403
 Root      4 :     4.946079286231496   Change is   -0.000144600763993
 Root      5 :     4.998051257300641   Change is   -0.000826218258647
 Root      6 :     5.146923642232386   Change is   -0.005436328947002
 Iteration     7 Dimension    94 NMult    84 NNew     10
 CISAX will form    10 AO SS matrices at one time.
 NMat=    10 NSing=     6 JSym2X= 0.
 Root      1 has converged.
 Root      2 has converged.
 Root      3 not converged, maximum delta is    0.001312225951774
 New state      4 was old state      6
 Root      4 not converged, maximum delta is    0.341333831462727
 New state      5 was old state      4
 Root      5 not converged, maximum delta is    0.151170970211038
 New state      6 was old state      5
 Root      6 not converged, maximum delta is    0.016634005357979
 Excitation Energies [eV] at current iteration:
 Root      1 :     3.660934579285752   Change is   -0.000019727150502
 Root      2 :     4.065581634959962   Change is   -0.000000283837219
 Root      3 :     4.295475147810818   Change is   -0.000009152781882
 Root      4 :     4.925855323923687   Change is   -0.221068318308698
 Root      5 :     4.947281989592615   Change is    0.001202703361119
 Root      6 :     4.997940473749446   Change is   -0.000110783551196
 Iteration     8 Dimension   102 NMult    94 NNew      8
 CISAX will form     8 AO SS matrices at one time.
 NMat=     8 NSing=     6 JSym2X= 0.
 Root      1 has converged.
 Root      2 has converged.
 Root      3 has converged.
 Root      4 not converged, maximum delta is    0.084705573185439
 Root      5 not converged, maximum delta is    0.077654457831161
 Root      6 not converged, maximum delta is    0.003891460128053
 Excitation Energies [eV] at current iteration:
 Root      1 :     3.660934576963690   Change is   -0.000000002322061
 Root      2 :     4.065581502245966   Change is   -0.000000132713996
 Root      3 :     4.295472862465942   Change is   -0.000002285344877
 Root      4 :     4.899691677765316   Change is   -0.026163646158371
 Root      5 :     4.946632148074503   Change is   -0.000649841518112
 Root      6 :     4.997906730346918   Change is   -0.000033743402528
 Iteration     9 Dimension   108 NMult   102 NNew      6
 CISAX will form     6 AO SS matrices at one time.
 NMat=     6 NSing=     6 JSym2X= 0.
 Root      1 has converged.
 Root      2 has converged.
 Root      3 has converged.
 Root      4 not converged, maximum delta is    0.008140367363237
 Root      5 not converged, maximum delta is    0.005622508257629
 Root      6 has converged.
 Excitation Energies [eV] at current iteration:
 Root      1 :     3.660934576963690   Change is    0.000000000000000
 Root      2 :     4.065581502245926   Change is   -0.000000000000041
 Root      3 :     4.295472862465902   Change is   -0.000000000000039
 Root      4 :     4.895107806112448   Change is   -0.004583871652868
 Root      5 :     4.946586639218724   Change is   -0.000045508855778
 Root      6 :     4.997903670367779   Change is   -0.000003059979138
 Iteration    10 Dimension   112 NMult   108 NNew      4
 CISAX will form     4 AO SS matrices at one time.
 NMat=     4 NSing=     4 JSym2X= 0.
 Root      1 has converged.
 Root      2 has converged.
 Root      3 has converged.
 Root      4 not converged, maximum delta is    0.001674822105591
 Root      5 has converged.
 Root      6 has converged.
 Excitation Energies [eV] at current iteration:
 Root      1 :     3.660934576963623   Change is   -0.000000000000067
 Root      2 :     4.065581502245966   Change is    0.000000000000041
 Root      3 :     4.295472862465998   Change is    0.000000000000096
 Root      4 :     4.894669222856721   Change is   -0.000438583255727
 Root      5 :     4.946582455224687   Change is   -0.000004183994038
 Root      6 :     4.997903624721595   Change is   -0.000000045646184
 Iteration    11 Dimension   114 NMult   112 NNew      2
 CISAX will form     2 AO SS matrices at one time.
 NMat=     2 NSing=     2 JSym2X= 0.
 Root      1 has converged.
 Root      2 has converged.
 Root      3 has converged.
 Root      4 has converged.
 Root      5 has converged.
 Root      6 has converged.
 Excitation Energies [eV] at current iteration:
 Root      1 :     3.660934576963690   Change is    0.000000000000067
 Root      2 :     4.065581502246027   Change is    0.000000000000060
 Root      3 :     4.295472862465980   Change is   -0.000000000000019
 Root      4 :     4.894617823556533   Change is   -0.000051399300187
 Root      5 :     4.946581963637645   Change is   -0.000000491587041
 Root      6 :     4.997903613502372   Change is   -0.000000011219223
 Convergence achieved on expansion vectors.
 ***********************************************************************
 Excited states from <AA,BB:AA,BB> singles matrix:
 ***********************************************************************
 
 1PDM for each excited state written to RWF  633
 Ground to excited state transition densities written to RWF  633
 Ground to excited state transition electric dipole moments (Au):
       state          X           Y           Z        Dip. S.      Osc.
         1         0.0000      0.0000      0.0000      0.0000      0.0000
         2         0.0000      0.0000      0.0000      0.0000      0.0000
         3         0.0000      0.0000      0.0000      0.0000      0.0000
         4        -0.0640      0.0016      0.0567      0.0073      0.0009
         5        -0.2306      0.3687      0.3673      0.3240      0.0393
         6        -0.1153      0.2999     -0.3971      0.2609      0.0319
 Ground to excited state transition velocity dipole moments (Au):
       state          X           Y           Z        Dip. S.      Osc.
         1         0.0000     -0.0000     -0.0000      0.0000      0.0000
         2        -0.0000     -0.0000     -0.0000      0.0000      0.0000
         3        -0.0000      0.0000     -0.0000      0.0000      0.0000
         4         0.0108      0.0016     -0.0090      0.0002      0.0007
         5         0.0234     -0.0543     -0.0537      0.0064      0.0234
         6        -0.0167     -0.0739      0.0597      0.0093      0.0338
 Ground to excited state transition magnetic dipole moments (Au):
       state          X           Y           Z
         1        -0.0000      0.0000     -0.0000
         2        -0.0000      0.0000      0.0000
         3        -0.0000      0.0000      0.0000
         4        -0.0555     -0.2640     -0.6565
         5        -0.5436      0.3487     -0.7073
         6         1.1101     -0.5700     -1.4761
 Ground to excited state transition velocity quadrupole moments (Au):
       state          XX          YY          ZZ          XY          XZ          YZ
         1         0.0000     -0.0000     -0.0000      0.0000     -0.0000     -0.0000
         2        -0.0000     -0.0000     -0.0000     -0.0000     -0.0000     -0.0000
         3        -0.0000      0.0000     -0.0000     -0.0000     -0.0000     -0.0000
         4         0.1658      0.1028     -0.2311      0.1540      0.0954     -0.0887
         5         0.6186     -1.1130     -1.2865     -0.3972     -0.1095     -1.3536
         6        -0.5618     -0.9524      1.0701     -1.2126      0.7555     -0.1819
 <0|del|b> * <b|rxdel|0> + <0|del|b> * <b|delr+rdel|0>
 Rotatory Strengths (R) in cgs (10**-40 erg-esu-cm/Gauss)
       state          XX          YY          ZZ    R(velocity)    E-M Angle
         1         0.0000     -0.0000      0.0000      0.0000       90.00
         2        -0.0000      0.0000      0.0000      0.0000       90.00
         3         0.0000     -0.0000      0.0000      0.0000       90.00
         4         7.7276     11.2553      0.1661      6.3830       61.00
         5        67.0275    -54.0913     11.6715      8.2026       85.26
         6      -120.4403    -60.1217    -67.9083    -82.8234      110.26
 1/2[<0|r|b>*<b|rxdel|0> + (<0|rxdel|b>*<b|r|0>)*]
 Rotatory Strengths (R) in cgs (10**-40 erg-esu-cm/Gauss)
       state          XX          YY          ZZ     R(length)
         1         0.0000     -0.0000      0.0000     -0.0000
         2         0.0000     -0.0000     -0.0000      0.0000
         3         0.0000     -0.0000     -0.0000      0.0000
         4        -2.5115      0.3062     26.3216      8.0388
         5       -88.6465    -90.9083    183.6996      1.3816
         6        90.5460    120.8784   -414.4795    -67.6850
  1/2[<0|del|b>*<b|r|0> + (<0|r|b>*<b|del|0>)*] (Au)
       state          X           Y           Z        Dip. S.   Osc.(frdel)
         1         0.0000     -0.0000     -0.0000      0.0000      0.0000
         2        -0.0000     -0.0000     -0.0000      0.0000      0.0000
         3        -0.0000      0.0000     -0.0000      0.0000      0.0000
         4        -0.0007      0.0000     -0.0005      0.0012      0.0008
         5        -0.0054     -0.0200     -0.0197      0.0452      0.0301
         6         0.0019     -0.0222     -0.0237      0.0439      0.0293

 Excitation energies and oscillator strengths:
 
 Excited state symmetry could not be determined.
 Excited State   1:      Triplet-?Sym    3.6609 eV  338.67 nm  f=0.0000  <S**2>=2.000
      79 -> 86        -0.10387
      82 -> 86         0.24926
      83 -> 86         0.45762
      84 -> 86        -0.41865
      85 -> 86         0.10556
 This state for optimization and/or second-order correction.
 Total Energy, E(TD-HF/TD-DFT) =  -1736.89813336    
 Copying the excited state density for this state as the 1-particle RhoCI density.
 
 Excited state symmetry could not be determined.
 Excited State   2:      Triplet-?Sym    4.0656 eV  304.96 nm  f=0.0000  <S**2>=2.000
      81 -> 87        -0.15850
      82 -> 88        -0.14774
      85 -> 87        -0.18346
      85 -> 88         0.62494
 
 Excited state symmetry could not be determined.
 Excited State   3:      Triplet-?Sym    4.2955 eV  288.64 nm  f=0.0000  <S**2>=2.000
      83 -> 87        -0.22753
      84 -> 87        -0.29451
      85 -> 87         0.54356
      85 -> 88         0.15384
 
 Excited state symmetry could not be determined.
 Excited State   4:      Singlet-?Sym    4.8946 eV  253.31 nm  f=0.0009  <S**2>=0.000
      80 -> 86         0.62163
      80 -> 89         0.23807
      80 -> 93        -0.17489
 
 Excited state symmetry could not be determined.
 Excited State   5:      Singlet-?Sym    4.9466 eV  250.65 nm  f=0.0393  <S**2>=0.000
      84 -> 86        -0.14756
      85 -> 86         0.67008
 
 Excited state symmetry could not be determined.
 Excited State   6:      Singlet-?Sym    4.9979 eV  248.07 nm  f=0.0319  <S**2>=0.000
      81 -> 88         0.14234
      83 -> 87        -0.25783
      84 -> 87        -0.32439
      85 -> 87         0.53421
 SavETr:  write IOETrn=   770 NScale= 10 NData=  16 NLR=1 NState=    6 LETran=     118.
 Leave Link  914 at Mon Aug 11 12:32:38 2025, MaxMem=  2147483648 cpu:             894.3 elap:             227.5
 (Enter /opt/apps/pkg/applications/licensed/gaussian/v16/x86_64AVX2/g16/l601.exe)
 Copying SCF densities to generalized density rwf, IOpCl= 0 IROHF=0.

 **********************************************************************

            Population analysis using the SCF density.

 **********************************************************************

 Alpha  occ. eigenvalues --  -89.68342 -89.43243 -19.67615 -19.61433 -19.56972
 Alpha  occ. eigenvalues --  -19.55945 -19.55768 -14.74864 -14.70773 -10.66180
 Alpha  occ. eigenvalues --  -10.60556 -10.60106 -10.57237 -10.56470 -10.56028
 Alpha  occ. eigenvalues --  -10.54836 -10.54470 -10.54291 -10.52211 -10.51780
 Alpha  occ. eigenvalues --  -10.50815  -8.47609  -8.26245  -6.39317  -6.39264
 Alpha  occ. eigenvalues --   -6.39135  -6.17747  -6.17444  -6.17008  -1.29715
 Alpha  occ. eigenvalues --   -1.26883  -1.25510  -1.17077  -1.15713  -1.09304
 Alpha  occ. eigenvalues --   -1.06243  -0.95611  -0.92775  -0.91681  -0.90921
 Alpha  occ. eigenvalues --   -0.85723  -0.84252  -0.79534  -0.75829  -0.74216
 Alpha  occ. eigenvalues --   -0.73605  -0.70681  -0.68356  -0.67171  -0.65803
 Alpha  occ. eigenvalues --   -0.63974  -0.63099  -0.59867  -0.59302  -0.57676
 Alpha  occ. eigenvalues --   -0.56228  -0.56072  -0.55740  -0.53823  -0.53157
 Alpha  occ. eigenvalues --   -0.52684  -0.51411  -0.51056  -0.50572  -0.49991
 Alpha  occ. eigenvalues --   -0.48975  -0.48815  -0.48127  -0.46584  -0.44149
 Alpha  occ. eigenvalues --   -0.43976  -0.43319  -0.41129  -0.40721  -0.40118
 Alpha  occ. eigenvalues --   -0.38772  -0.38718  -0.38397  -0.37749  -0.37268
 Alpha  occ. eigenvalues --   -0.35012  -0.34638  -0.32844  -0.31661  -0.26483
 Alpha virt. eigenvalues --   -0.03631   0.01198   0.01606   0.04498   0.07851
 Alpha virt. eigenvalues --    0.09622   0.12825   0.13819   0.14191   0.14800
 Alpha virt. eigenvalues --    0.15620   0.15986   0.17205   0.17774   0.18733
 Alpha virt. eigenvalues --    0.20165   0.20331   0.20704   0.21096   0.21790
 Alpha virt. eigenvalues --    0.22024   0.22812   0.22910   0.23046   0.24052
 Alpha virt. eigenvalues --    0.25879   0.28044   0.30992   0.31692   0.32801
 Alpha virt. eigenvalues --    0.34059   0.34974   0.39258   0.41668   0.42458
 Alpha virt. eigenvalues --    0.42812   0.47377   0.48281   0.48958   0.49889
 Alpha virt. eigenvalues --    0.52850   0.55205   0.56789   0.56992   0.57385
 Alpha virt. eigenvalues --    0.59619   0.62623   0.63341   0.68798   0.70145
 Alpha virt. eigenvalues --    0.70655   0.71002   0.71581   0.72498   0.72856
 Alpha virt. eigenvalues --    0.73268   0.74333   0.75664   0.76622   0.78091
 Alpha virt. eigenvalues --    0.78584   0.78800   0.79525   0.80315   0.81555
 Alpha virt. eigenvalues --    0.82798   0.84707   0.85541   0.86446   0.87152
 Alpha virt. eigenvalues --    0.88432   0.90412   0.92078   0.93491   0.95045
 Alpha virt. eigenvalues --    0.95519   0.97383   0.98086   0.98857   1.00589
 Alpha virt. eigenvalues --    1.01340   1.02769   1.04102   1.04905   1.05237
 Alpha virt. eigenvalues --    1.05854   1.07446   1.08810   1.08861   1.09917
 Alpha virt. eigenvalues --    1.11527   1.11681   1.12197   1.13124   1.13809
 Alpha virt. eigenvalues --    1.14777   1.17690   1.18160   1.21756   1.22121
 Alpha virt. eigenvalues --    1.25918   1.26773   1.28882   1.32518   1.35618
 Alpha virt. eigenvalues --    1.38545   1.40542   1.43342   1.45214   1.47780
 Alpha virt. eigenvalues --    1.51646   1.53676   1.54690   1.56038   1.56634
 Alpha virt. eigenvalues --    1.57182   1.58650   1.60083   1.61788   1.63200
 Alpha virt. eigenvalues --    1.64746   1.67104   1.67232   1.68626   1.69735
 Alpha virt. eigenvalues --    1.71200   1.71711   1.74677   1.75372   1.76498
 Alpha virt. eigenvalues --    1.83907   1.89315   1.92828   1.97759   1.98778
 Alpha virt. eigenvalues --    2.02695   2.08717   2.11997   2.27383   2.65515
 Alpha virt. eigenvalues --    2.97455   3.12522   3.20540   3.25354   3.33186
 Alpha virt. eigenvalues --    3.49411   3.49988   3.53616
          Condensed to atoms (all electrons):
               1          2          3          4          5          6
     1  C    5.475231   0.223523  -0.019645   0.002491  -0.000076   0.000031
     2  S    0.223523  15.549201   0.245400  -0.092672   0.003519  -0.000664
     3  C   -0.019645   0.245400   5.209612   0.355704  -0.091371  -0.029062
     4  C    0.002491  -0.092672   0.355704   5.353872   0.416123  -0.068072
     5  C   -0.000076   0.003519  -0.091371   0.416123   5.290105   0.395881
     6  C    0.000031  -0.000664  -0.029062  -0.068072   0.395881   5.231342
     7  C   -0.000172   0.004000  -0.116466  -0.022528  -0.085744   0.323052
     8  N   -0.005592  -0.073456   0.403966  -0.055493  -0.037507  -0.046391
     9  N   -0.000000   0.000003  -0.000092   0.004348  -0.055971   0.211610
    10  S   -0.000000  -0.000000   0.000012   0.000112  -0.005728  -0.030478
    11  O   -0.000000   0.000000  -0.000000   0.000000  -0.000013   0.000309
    12  O   -0.000000   0.000000  -0.000000  -0.000023  -0.000241   0.002957
    13  C   -0.000000   0.000000   0.000000   0.000019   0.002095  -0.000364
    14  C    0.000000  -0.000000  -0.000000   0.000000  -0.000007  -0.000016
    15  C   -0.000000   0.000000  -0.000000   0.000000  -0.000031  -0.000002
    16  C    0.000000  -0.000000   0.000000  -0.000000   0.000114   0.000019
    17  O   -0.000000   0.000000  -0.000000   0.000141  -0.008242  -0.000556
    18  C    0.000000  -0.000000   0.000000  -0.000003   0.000059   0.000003
    19  O    0.000000  -0.000000   0.000000  -0.000000  -0.000000   0.000000
    20  O   -0.000000  -0.000000   0.000000   0.000000  -0.000725   0.000002
    21  C    0.000000  -0.000000  -0.000000  -0.000003   0.000018  -0.000000
    22  H    0.350789  -0.037221   0.002037  -0.000004   0.000000   0.000000
    23  H    0.358159  -0.044302  -0.003460   0.000100  -0.000000   0.000004
    24  H    0.359091  -0.044126  -0.003314   0.000087   0.000002   0.000005
    25  H    0.000001   0.002251  -0.029596   0.380183  -0.031912   0.003717
    26  H    0.000000  -0.000037   0.002919  -0.026222   0.349453  -0.039651
    27  H   -0.000015   0.000067   0.004699  -0.000929   0.003897  -0.079582
    28  H   -0.000000  -0.000000   0.000020  -0.000086   0.001608  -0.031671
    29  H    0.000000  -0.000000   0.000000  -0.000000   0.000000  -0.000000
    30  H    0.000000  -0.000000   0.000000  -0.000000   0.000000   0.000000
    31  H   -0.000000  -0.000000  -0.000000  -0.000000   0.000013   0.000000
    32  H   -0.000000  -0.000000   0.000000   0.000000  -0.000001   0.000000
    33  H   -0.000000  -0.000000   0.000000   0.000000  -0.000001   0.000000
               7          8          9         10         11         12
     1  C   -0.000172  -0.005592  -0.000000  -0.000000  -0.000000  -0.000000
     2  S    0.004000  -0.073456   0.000003  -0.000000   0.000000   0.000000
     3  C   -0.116466   0.403966  -0.000092   0.000012  -0.000000  -0.000000
     4  C   -0.022528  -0.055493   0.004348   0.000112   0.000000  -0.000023
     5  C   -0.085744  -0.037507  -0.055971  -0.005728  -0.000013  -0.000241
     6  C    0.323052  -0.046391   0.211610  -0.030478   0.000309   0.002957
     7  C    5.001608   0.429373  -0.043253  -0.000206   0.000006  -0.000105
     8  N    0.429373   6.996065   0.002013   0.000030   0.000000   0.000000
     9  N   -0.043253   0.002013   7.407859   0.163099  -0.034087  -0.037794
    10  S   -0.000206   0.000030   0.163099  13.455586   0.552607   0.553366
    11  O    0.000006   0.000000  -0.034087   0.552607   8.027601  -0.020142
    12  O   -0.000105   0.000000  -0.037794   0.553366  -0.020142   7.993741
    13  C   -0.000072   0.000000  -0.047518  -0.049280  -0.049920  -0.048899
    14  C    0.000000  -0.000000   0.000812  -0.031109  -0.002662   0.000711
    15  C   -0.000000   0.000000  -0.000059   0.004743   0.000160  -0.000025
    16  C   -0.000000   0.000000  -0.000046  -0.003312  -0.000031  -0.000040
    17  O    0.000000  -0.000000  -0.000903   0.002132   0.000117  -0.000564
    18  C    0.000000  -0.000000   0.000000  -0.000159  -0.000000  -0.000000
    19  O    0.000000  -0.000000  -0.000000  -0.000000  -0.000000  -0.000000
    20  O    0.000000  -0.000000  -0.000000  -0.000007   0.000000   0.000000
    21  C   -0.000000   0.000000   0.000000   0.000000   0.000000  -0.000000
    22  H    0.000006   0.000417  -0.000000  -0.000000  -0.000000   0.000000
    23  H   -0.000006   0.007797  -0.000000  -0.000000   0.000000   0.000000
    24  H   -0.000033   0.006993  -0.000000   0.000000  -0.000000  -0.000000
    25  H    0.000081   0.002635  -0.000009  -0.000004  -0.000000   0.000000
    26  H    0.002866  -0.000100  -0.004244   0.000435  -0.000000   0.000010
    27  H    0.402337  -0.038917  -0.000349  -0.000114  -0.000006  -0.000000
    28  H   -0.000203   0.000032   0.322403  -0.017867   0.001001   0.000636
    29  H    0.000000  -0.000000   0.000004   0.000293   0.001575  -0.000000
    30  H    0.000000  -0.000000   0.000000   0.000007   0.000000   0.000000
    31  H   -0.000000   0.000000   0.000000   0.000000   0.000000  -0.000000
    32  H    0.000000  -0.000000  -0.000000  -0.000000   0.000000   0.000000
    33  H    0.000000  -0.000000   0.000000  -0.000000   0.000000  -0.000000
              13         14         15         16         17         18
     1  C   -0.000000   0.000000  -0.000000   0.000000  -0.000000   0.000000
     2  S    0.000000  -0.000000   0.000000  -0.000000   0.000000  -0.000000
     3  C    0.000000  -0.000000  -0.000000   0.000000  -0.000000   0.000000
     4  C    0.000019   0.000000   0.000000  -0.000000   0.000141  -0.000003
     5  C    0.002095  -0.000007  -0.000031   0.000114  -0.008242   0.000059
     6  C   -0.000364  -0.000016  -0.000002   0.000019  -0.000556   0.000003
     7  C   -0.000072   0.000000  -0.000000  -0.000000   0.000000   0.000000
     8  N    0.000000  -0.000000   0.000000   0.000000  -0.000000  -0.000000
     9  N   -0.047518   0.000812  -0.000059  -0.000046  -0.000903   0.000000
    10  S   -0.049280  -0.031109   0.004743  -0.003312   0.002132  -0.000159
    11  O   -0.049920  -0.002662   0.000160  -0.000031   0.000117  -0.000000
    12  O   -0.048899   0.000711  -0.000025  -0.000040  -0.000564  -0.000000
    13  C    5.931577   0.374176  -0.106930  -0.157178   0.235362  -0.000009
    14  C    0.374176   5.366713   0.368125  -0.094324  -0.084995   0.008136
    15  C   -0.106930   0.368125   5.381277   0.341313  -0.098016  -0.080489
    16  C   -0.157178  -0.094324   0.341313   5.524205   0.268942   0.097845
    17  O    0.235362  -0.084995  -0.098016   0.268942   8.188193  -0.014203
    18  C   -0.000009   0.008136  -0.080489   0.097845  -0.014203   4.604034
    19  O   -0.000059   0.000178   0.002045  -0.114364   0.000276   0.573424
    20  O    0.000008  -0.000038   0.002602  -0.095784   0.000379   0.206107
    21  C    0.000001   0.000001  -0.000075   0.006620  -0.000007  -0.063652
    22  H   -0.000000   0.000000   0.000000  -0.000000   0.000000  -0.000000
    23  H   -0.000000  -0.000000  -0.000000   0.000000  -0.000000   0.000000
    24  H   -0.000000   0.000000  -0.000000  -0.000000   0.000000  -0.000000
    25  H    0.000000  -0.000000  -0.000000   0.000000  -0.000001   0.000000
    26  H   -0.002031   0.000190   0.000163  -0.000372   0.031036  -0.000264
    27  H    0.000003   0.000000   0.000000  -0.000000   0.000000  -0.000000
    28  H    0.002333   0.000020  -0.000000   0.000002   0.000006  -0.000000
    29  H   -0.024841   0.377775  -0.017996   0.004152   0.001634  -0.000010
    30  H    0.004331  -0.021575   0.386545  -0.027839   0.001487  -0.000975
    31  H    0.000000  -0.000000  -0.000000   0.000028  -0.000003   0.004316
    32  H    0.000000  -0.000000   0.000002  -0.000041  -0.000001  -0.005029
    33  H    0.000000  -0.000000   0.000004  -0.000067  -0.000001  -0.004994
              19         20         21         22         23         24
     1  C    0.000000  -0.000000   0.000000   0.350789   0.358159   0.359091
     2  S   -0.000000  -0.000000  -0.000000  -0.037221  -0.044302  -0.044126
     3  C    0.000000   0.000000  -0.000000   0.002037  -0.003460  -0.003314
     4  C   -0.000000   0.000000  -0.000003  -0.000004   0.000100   0.000087
     5  C   -0.000000  -0.000725   0.000018   0.000000  -0.000000   0.000002
     6  C    0.000000   0.000002  -0.000000   0.000000   0.000004   0.000005
     7  C    0.000000   0.000000  -0.000000   0.000006  -0.000006  -0.000033
     8  N   -0.000000  -0.000000   0.000000   0.000417   0.007797   0.006993
     9  N   -0.000000  -0.000000   0.000000  -0.000000  -0.000000  -0.000000
    10  S   -0.000000  -0.000007   0.000000  -0.000000  -0.000000   0.000000
    11  O   -0.000000   0.000000   0.000000  -0.000000   0.000000  -0.000000
    12  O   -0.000000   0.000000  -0.000000   0.000000   0.000000  -0.000000
    13  C   -0.000059   0.000008   0.000001  -0.000000  -0.000000  -0.000000
    14  C    0.000178  -0.000038   0.000001   0.000000  -0.000000   0.000000
    15  C    0.002045   0.002602  -0.000075   0.000000  -0.000000  -0.000000
    16  C   -0.114364  -0.095784   0.006620  -0.000000   0.000000  -0.000000
    17  O    0.000276   0.000379  -0.000007   0.000000  -0.000000   0.000000
    18  C    0.573424   0.206107  -0.063652  -0.000000   0.000000  -0.000000
    19  O    8.084127  -0.060718  -0.000203   0.000000   0.000000   0.000000
    20  O   -0.060718   8.353109   0.220201   0.000000  -0.000000  -0.000000
    21  C   -0.000203   0.220201   5.110229   0.000000   0.000000   0.000000
    22  H    0.000000   0.000000   0.000000   0.499874  -0.019372  -0.019533
    23  H    0.000000  -0.000000   0.000000  -0.019372   0.484914  -0.027216
    24  H    0.000000  -0.000000   0.000000  -0.019533  -0.027216   0.482055
    25  H   -0.000000  -0.000011   0.000008  -0.000001  -0.000002  -0.000002
    26  H    0.000002   0.004807  -0.000098  -0.000000   0.000000   0.000000
    27  H    0.000000   0.000000  -0.000000  -0.000000  -0.000015  -0.000011
    28  H    0.000000  -0.000000   0.000000  -0.000000   0.000000  -0.000000
    29  H    0.000000   0.000000  -0.000000  -0.000000  -0.000000   0.000000
    30  H    0.000770   0.000015  -0.000000   0.000000   0.000000   0.000000
    31  H    0.000217  -0.021926   0.366613  -0.000000  -0.000000  -0.000000
    32  H    0.004201  -0.028323   0.351410   0.000000  -0.000000  -0.000000
    33  H    0.003958  -0.028372   0.351307   0.000000  -0.000000  -0.000000
              25         26         27         28         29         30
     1  C    0.000001   0.000000  -0.000015  -0.000000   0.000000   0.000000
     2  S    0.002251  -0.000037   0.000067  -0.000000  -0.000000  -0.000000
     3  C   -0.029596   0.002919   0.004699   0.000020   0.000000   0.000000
     4  C    0.380183  -0.026222  -0.000929  -0.000086  -0.000000  -0.000000
     5  C   -0.031912   0.349453   0.003897   0.001608   0.000000   0.000000
     6  C    0.003717  -0.039651  -0.079582  -0.031671  -0.000000   0.000000
     7  C    0.000081   0.002866   0.402337  -0.000203   0.000000   0.000000
     8  N    0.002635  -0.000100  -0.038917   0.000032  -0.000000  -0.000000
     9  N   -0.000009  -0.004244  -0.000349   0.322403   0.000004   0.000000
    10  S   -0.000004   0.000435  -0.000114  -0.017867   0.000293   0.000007
    11  O   -0.000000  -0.000000  -0.000006   0.001001   0.001575   0.000000
    12  O    0.000000   0.000010  -0.000000   0.000636  -0.000000   0.000000
    13  C    0.000000  -0.002031   0.000003   0.002333  -0.024841   0.004331
    14  C   -0.000000   0.000190   0.000000   0.000020   0.377775  -0.021575
    15  C   -0.000000   0.000163   0.000000  -0.000000  -0.017996   0.386545
    16  C    0.000000  -0.000372  -0.000000   0.000002   0.004152  -0.027839
    17  O   -0.000001   0.031036   0.000000   0.000006   0.001634   0.001487
    18  C    0.000000  -0.000264  -0.000000  -0.000000  -0.000010  -0.000975
    19  O   -0.000000   0.000002   0.000000   0.000000   0.000000   0.000770
    20  O   -0.000011   0.004807   0.000000  -0.000000   0.000000   0.000015
    21  C    0.000008  -0.000098  -0.000000   0.000000  -0.000000  -0.000000
    22  H   -0.000001  -0.000000  -0.000000  -0.000000  -0.000000   0.000000
    23  H   -0.000002   0.000000  -0.000015   0.000000  -0.000000   0.000000
    24  H   -0.000002   0.000000  -0.000011  -0.000000   0.000000   0.000000
    25  H    0.444426  -0.002975   0.000006   0.000001   0.000000  -0.000000
    26  H   -0.002975   0.412711  -0.000020  -0.000013  -0.000002  -0.000001
    27  H    0.000006  -0.000020   0.470678   0.001702   0.000000  -0.000000
    28  H    0.000001  -0.000013   0.001702   0.355581  -0.000000  -0.000000
    29  H    0.000000  -0.000002   0.000000  -0.000000   0.393004  -0.000776
    30  H   -0.000000  -0.000001  -0.000000  -0.000000  -0.000776   0.399803
    31  H    0.000039  -0.000039  -0.000000   0.000000   0.000000  -0.000000
    32  H   -0.000000   0.000006   0.000000  -0.000000   0.000000  -0.000000
    33  H   -0.000000   0.000006   0.000000  -0.000000   0.000000  -0.000000
              31         32         33
     1  C   -0.000000  -0.000000  -0.000000
     2  S   -0.000000  -0.000000  -0.000000
     3  C   -0.000000   0.000000   0.000000
     4  C   -0.000000   0.000000   0.000000
     5  C    0.000013  -0.000001  -0.000001
     6  C    0.000000   0.000000   0.000000
     7  C   -0.000000   0.000000   0.000000
     8  N    0.000000  -0.000000  -0.000000
     9  N    0.000000  -0.000000   0.000000
    10  S    0.000000  -0.000000  -0.000000
    11  O    0.000000   0.000000   0.000000
    12  O   -0.000000   0.000000  -0.000000
    13  C    0.000000   0.000000   0.000000
    14  C   -0.000000  -0.000000  -0.000000
    15  C   -0.000000   0.000002   0.000004
    16  C    0.000028  -0.000041  -0.000067
    17  O   -0.000003  -0.000001  -0.000001
    18  C    0.004316  -0.005029  -0.004994
    19  O    0.000217   0.004201   0.003958
    20  O   -0.021926  -0.028323  -0.028372
    21  C    0.366613   0.351410   0.351307
    22  H   -0.000000   0.000000   0.000000
    23  H   -0.000000  -0.000000  -0.000000
    24  H   -0.000000  -0.000000  -0.000000
    25  H    0.000039  -0.000000  -0.000000
    26  H   -0.000039   0.000006   0.000006
    27  H   -0.000000   0.000000   0.000000
    28  H    0.000000  -0.000000  -0.000000
    29  H    0.000000   0.000000   0.000000
    30  H   -0.000000  -0.000000  -0.000000
    31  H    0.473040  -0.025412  -0.025846
    32  H   -0.025412   0.508518  -0.034951
    33  H   -0.025846  -0.034951   0.510979
 Mulliken charges:
               1
     1  C   -0.743817
     2  S    0.264515
     3  C    0.068638
     4  C   -0.247146
     5  C   -0.145317
     6  C    0.157575
     7  C    0.105458
     8  N   -0.591866
     9  N   -0.887825
    10  S    1.405842
    11  O   -0.476514
    12  O   -0.443585
    13  C   -0.062805
    14  C   -0.262110
    15  C   -0.183357
    16  C    0.250159
    17  O   -0.522214
    18  C    0.675861
    19  O   -0.493854
    20  O   -0.551325
    21  C   -0.342371
    22  H    0.223009
    23  H    0.243399
    24  H    0.246001
    25  H    0.231163
    26  H    0.271465
    27  H    0.236571
    28  H    0.364496
    29  H    0.265187
    30  H    0.258207
    31  H    0.228960
    32  H    0.229622
    33  H    0.227980
 Sum of Mulliken charges =  -0.00000
 Mulliken charges with hydrogens summed into heavy atoms:
               1
     1  C   -0.031409
     2  S    0.264515
     3  C    0.068638
     4  C   -0.015982
     5  C    0.126147
     6  C    0.157575
     7  C    0.342028
     8  N   -0.591866
     9  N   -0.523329
    10  S    1.405842
    11  O   -0.476514
    12  O   -0.443585
    13  C   -0.062805
    14  C    0.003078
    15  C    0.074851
    16  C    0.250159
    17  O   -0.522214
    18  C    0.675861
    19  O   -0.493854
    20  O   -0.551325
    21  C    0.344191
 Electronic spatial extent (au):  <R**2>=          63978.7726
 Charge=             -0.0000 electrons
 Dipole moment (field-independent basis, Debye):
    X=              1.8907    Y=              2.8610    Z=              1.3206  Tot=              3.6748
 Quadrupole moment (field-independent basis, Debye-Ang):
   XX=           -115.3748   YY=           -103.0862   ZZ=           -113.8016
   XY=             18.8951   XZ=             11.9175   YZ=             16.2097
 Traceless Quadrupole moment (field-independent basis, Debye-Ang):
   XX=             -4.6206   YY=              7.6680   ZZ=             -3.0474
   XY=             18.8951   XZ=             11.9175   YZ=             16.2097
 Octapole moment (field-independent basis, Debye-Ang**2):
  XXX=          -2065.9651  YYY=          -1998.2488  ZZZ=          -1894.7132  XYY=           -578.7555
  XXY=           -641.6591  XXZ=           -657.8665  XZZ=           -590.6365  YZZ=           -632.9095
  YYZ=           -634.9744  XYZ=            106.4448
 Hexadecapole moment (field-independent basis, Debye-Ang**3):
 XXXX=         -27547.8851 YYYY=         -27353.1130 ZZZZ=         -23147.8450 XXXY=         -10134.0241
 XXXZ=         -11636.7866 YYYX=          -9443.4025 YYYZ=         -12552.1738 ZZZX=          -9968.9700
 ZZZY=         -11353.5713 XXYY=          -8711.7664 XXZZ=          -8561.8348 YYZZ=          -9291.2866
 XXYZ=          -3717.9686 YYXZ=          -3280.7431 ZZXY=          -2417.5916
 N-N= 1.967236781973D+03 E-N=-8.013600315373D+03  KE= 1.721246825790D+03
 Leave Link  601 at Mon Aug 11 12:32:38 2025, MaxMem=  2147483648 cpu:               0.1 elap:               0.1
 (Enter /opt/apps/pkg/applications/licensed/gaussian/v16/x86_64AVX2/g16/l9999.exe)
 Electronic transition elements 
                 1             2             3             4             5 
      1  -0.173690D+04 -0.173688D+04 -0.173687D+04 -0.173685D+04 -0.173685D+04
      2   0.000000D+00  0.000000D+00  0.000000D+00 -0.640059D-01 -0.230609D+00
      3   0.000000D+00  0.000000D+00  0.000000D+00  0.163993D-02  0.368713D+00
      4   0.000000D+00  0.000000D+00  0.000000D+00  0.567006D-01  0.367272D+00
      5   0.000000D+00  0.000000D+00  0.000000D+00  0.108160D-01  0.234406D-01
      6   0.000000D+00  0.000000D+00  0.000000D+00  0.162808D-02 -0.543124D-01
      7   0.000000D+00  0.000000D+00  0.000000D+00 -0.898882D-02 -0.537312D-01
      8   0.000000D+00  0.000000D+00  0.000000D+00 -0.554865D-01 -0.543580D+00
      9   0.000000D+00  0.000000D+00  0.000000D+00 -0.264039D+00  0.348653D+00
     10   0.000000D+00  0.000000D+00  0.000000D+00 -0.656454D+00 -0.707293D+00
     11   0.000000D+00  0.000000D+00  0.000000D+00  0.165842D+00  0.618590D+00
     12   0.000000D+00  0.000000D+00  0.000000D+00  0.102823D+00 -0.111297D+01
     13   0.000000D+00  0.000000D+00  0.000000D+00 -0.231135D+00 -0.128648D+01
     14   0.000000D+00  0.000000D+00  0.000000D+00  0.154016D+00 -0.397183D+00
     15   0.000000D+00  0.000000D+00  0.000000D+00  0.953600D-01 -0.109524D+00
     16   0.000000D+00  0.000000D+00  0.000000D+00 -0.886885D-01 -0.135364D+01
                 6 
      1  -0.173685D+04
      2  -0.115338D+00
      3   0.299880D+00
      4  -0.397061D+00
      5  -0.166978D-01
      6  -0.738757D-01
      7   0.596880D-01
      8   0.111013D+01
      9  -0.570007D+00
     10  -0.147613D+01
     11  -0.561809D+00
     12  -0.952437D+00
     13   0.107005D+01
     14  -0.121258D+01
     15   0.755470D+00
     16  -0.181889D+00
 1\1\GINC-NODE007\SP\RM062X TD-FC\3-21G*\C12H12N2O5S2\SGOOMAR1\11-Aug-2
 025\0\\#p td=(nstates=3,50-50) m062x 3-21g* guess=read geom=check inte
 gral=ultrafine nosymm\\title\\0,1\C,0,10.0924207355,1.5695931683,4.787
 2709202\S,0,9.1404602678,2.1833476576,6.2114664117\C,0,8.0431345327,3.
 2995709348,5.3921366361\C,0,7.0992096268,4.0063997742,6.1463615604\C,0
 ,6.2470550977,4.8870175812,5.5068936416\C,0,6.3370328217,5.0281725165,
 4.1171951955\C,0,7.293535991,4.2803113026,3.444154731\N,0,8.1395042074
 ,3.4452408271,4.0650744848\N,0,5.5027452476,5.9312062976,3.3898534629\
 S,0,3.8624562048,5.9079211556,3.3927218474\O,0,3.4114804554,6.46988488
 41,2.1347424504\O,0,3.4313066466,4.6212053903,3.8871334951\C,0,3.45728
 95906,7.1207159666,4.5722963206\C,0,2.7478097663,8.2774161216,4.487321
 5541\C,0,2.7369075547,8.8473592691,5.8016959348\C,0,3.4443055779,8.007
 0599302,6.6044816778\O,0,3.898162291,6.9228754804,5.8704380656\C,0,3.7
 645689841,8.115582147,8.0178299568\O,0,3.3933677289,9.024210521,8.7439
 960231\O,0,4.5419638921,7.0734029734,8.4254274295\C,0,4.9178076007,7.0
 868126491,9.8470586961\H,0,10.8213685917,0.8651765686,5.184324873\H,0,
 10.5938558889,2.3928651512,4.2871831513\H,0,9.4335123677,1.074163078,4
 .08030715\H,0,7.049309437,3.8703923466,7.2146602861\H,0,5.5318651602,5
 .4639311165,6.0700605348\H,0,7.3827669252,4.3586696229,2.3703360661\H,
 0,5.9282701556,6.5274557288,2.687830014\H,0,2.2931131149,8.6646483865,
 3.5983242147\H,0,2.2729648811,9.7614558071,6.1136538723\H,0,5.51007169
 53,6.189541706,9.9824028541\H,0,4.028409542,7.0694295937,10.4731608686
 \H,0,5.4963774189,7.9790143457,10.0768256195\\Version=ES64L-G16RevA.03
 \HF=-1737.0326702\RMSD=9.835e-09\PG=C01 [X(C12H12N2O5S2)]\\@


 HIGGLEDY-PIGGLEDY
 NIC'LAUS COPERNICUS
 LOOKED AT THE UNIVERSE,
 SPOKE TO THE THRONG;
 GIVE UP YOUR PTOLOMY,
 RISE UP AND FOLLOW ME,
 HELIOCENTRICALLY
 PTOLEMY'S WRONG.
   -- NANCY L. STARK
 Job cpu time:       0 days  0 hours 16 minutes 30.6 seconds.
 Elapsed time:       0 days  0 hours  4 minutes 15.3 seconds.
 File lengths (MBytes):  RWF=    496 Int=      0 D2E=      0 Chk=     19 Scr=      1
 Normal termination of Gaussian 16 at Mon Aug 11 12:32:38 2025.
