 Entering Gaussian System, Link 0=g16
 Input=td_ZINC000001580372_07.com
 Output=td_ZINC000001580372_07.log
 Initial command:
 /opt/apps/pkg/applications/licensed/gaussian/v16/x86_64AVX2/g16/l1.exe "/tmp/Gau-4176670.inp" -scrdir="/tmp/"
 Entering Link 1 = /opt/apps/pkg/applications/licensed/gaussian/v16/x86_64AVX2/g16/l1.exe PID=   4176671.
  
 Copyright (c) 1988,1990,1992,1993,1995,1998,2003,2009,2016,
            Gaussian, Inc.  All Rights Reserved.
  
 This is part of the Gaussian(R) 16 program.  It is based on
 the Gaussian(R) 09 system (copyright 2009, Gaussian, Inc.),
 the Gaussian(R) 03 system (copyright 2003, Gaussian, Inc.),
 the Gaussian(R) 98 system (copyright 1998, Gaussian, Inc.),
 the Gaussian(R) 94 system (copyright 1995, Gaussian, Inc.),
 the Gaussian 92(TM) system (copyright 1992, Gaussian, Inc.),
 the Gaussian 90(TM) system (copyright 1990, Gaussian, Inc.),
 the Gaussian 88(TM) system (copyright 1988, Gaussian, Inc.),
 the Gaussian 86(TM) system (copyright 1986, Carnegie Mellon
 University), and the Gaussian 82(TM) system (copyright 1983,
 Carnegie Mellon University). Gaussian is a federally registered
 trademark of Gaussian, Inc.
  
 This software contains proprietary and confidential information,
 including trade secrets, belonging to Gaussian, Inc.
  
 This software is provided under written license and may be
 used, copied, transmitted, or stored only in accord with that
 written license.
  
 The following legend is applicable only to US Government
 contracts under FAR:
  
                    RESTRICTED RIGHTS LEGEND
  
 Use, reproduction and disclosure by the US Government is
 subject to restrictions as set forth in subparagraphs (a)
 and (c) of the Commercial Computer Software - Restricted
 Rights clause in FAR 52.227-19.
  
 Gaussian, Inc.
 340 Quinnipiac St., Bldg. 40, Wallingford CT 06492
  
  
 ---------------------------------------------------------------
 Warning -- This program may not be used in any manner that
 competes with the business of Gaussian, Inc. or will provide
 assistance to any competitor of Gaussian, Inc.  The licensee
 of this program is prohibited from giving any competitor of
 Gaussian, Inc. access to this program.  By using this program,
 the user acknowledges that Gaussian, Inc. is engaged in the
 business of creating and licensing software in the field of
 computational chemistry and represents and warrants to the
 licensee that it is not a competitor of Gaussian, Inc. and that
 it will not use this program in any manner prohibited above.
 ---------------------------------------------------------------
  

 Cite this work as:
 Gaussian 16, Revision A.03,
 M. J. Frisch, G. W. Trucks, H. B. Schlegel, G. E. Scuseria, 
 M. A. Robb, J. R. Cheeseman, G. Scalmani, V. Barone, 
 G. A. Petersson, H. Nakatsuji, X. Li, M. Caricato, A. V. Marenich, 
 J. Bloino, B. G. Janesko, R. Gomperts, B. Mennucci, H. P. Hratchian, 
 J. V. Ortiz, A. F. Izmaylov, J. L. Sonnenberg, D. Williams-Young, 
 F. Ding, F. Lipparini, F. Egidi, J. Goings, B. Peng, A. Petrone, 
 T. Henderson, D. Ranasinghe, V. G. Zakrzewski, J. Gao, N. Rega, 
 G. Zheng, W. Liang, M. Hada, M. Ehara, K. Toyota, R. Fukuda, 
 J. Hasegawa, M. Ishida, T. Nakajima, Y. Honda, O. Kitao, H. Nakai, 
 T. Vreven, K. Throssell, J. A. Montgomery, Jr., J. E. Peralta, 
 F. Ogliaro, M. J. Bearpark, J. J. Heyd, E. N. Brothers, K. N. Kudin, 
 V. N. Staroverov, T. A. Keith, R. Kobayashi, J. Normand, 
 K. Raghavachari, A. P. Rendell, J. C. Burant, S. S. Iyengar, 
 J. Tomasi, M. Cossi, J. M. Millam, M. Klene, C. Adamo, R. Cammi, 
 J. W. Ochterski, R. L. Martin, K. Morokuma, O. Farkas, 
 J. B. Foresman, and D. J. Fox, Gaussian, Inc., Wallingford CT, 2016.
 
 ******************************************
 Gaussian 16:  ES64L-G16RevA.03 25-Dec-2016
                11-Aug-2025 
 ******************************************
 %nproc=4
 Will use up to    4 processors via shared memory.
 %oldchk=ZINC000001580372_07_opt.chk
 %chk=ZINC000001580372_07_td.chk
 Copying data from "ZINC000001580372_07_opt.chk" to current chk file "ZINC000001580372_07_td.chk"
 IOpt=  2 FromEx=T IUOpen= 4 IOptOp= 5 NList=   0 IFRang= 0 IUIn= 4 IUOut= 2.
 ----------------------------------------------------------------------
 #p td=(nstates=3,50-50) m062x 3-21g* guess=read geom=check integral=ul
 trafine nosymm
 ----------------------------------------------------------------------
 1/29=2,38=1,172=1/1;
 2/12=2,15=1,40=1/2;
 3/5=5,7=1,11=9,14=-4,25=1,30=1,74=-55,75=-5,116=-2/1,2,3,8;
 4/5=1/1;
 5/5=2,38=6/2;
 8/6=1,10=1,108=3/1;
 9/41=3,42=1,48=2,70=2/14;
 6/7=2,8=2,9=2,10=2/1;
 99/5=1,9=1/99;
 Leave Link    1 at Mon Aug 11 19:43:31 2025, MaxMem=  2147483648 cpu:               0.2 elap:               0.1
 (Enter /opt/apps/pkg/applications/licensed/gaussian/v16/x86_64AVX2/g16/l101.exe)
 -----
 title
 -----
 Structure from the checkpoint file:  "ZINC000001580372_07_td.chk"
 Charge =  0 Multiplicity = 1
 Redundant internal coordinates found in file.  (old form).
 C,0,9.0063185165,4.2371910624,-1.410642014
 C,0,8.135445984,3.8599856523,-0.1974384432
 C,0,8.1367977565,2.3394578852,0.0586197703
 C,0,7.1319161197,1.9236787773,1.1486351679
 C,0,7.1660220248,0.3916036087,1.4162214543
 C,0,6.6635964148,0.0526443502,2.8082760754
 O,0,5.5833058494,-0.4827910316,3.0355669196
 N,0,7.52689762,0.4051698503,3.8719810441
 S,0,9.1271844014,0.9780358044,3.5920057642
 C,0,8.7872804563,2.5908272032,4.3112869112
 N,0,8.0015692674,2.7528250293,5.3014892495
 C,0,7.3181392709,1.6812904429,5.9031725769
 C,0,7.0464915095,0.4848816332,5.2165440747
 C,0,6.2927750428,-0.5153386591,5.8218225062
 C,0,5.8492782546,-0.3477228717,7.1273599411
 C,0,6.1417750628,0.8222395416,7.8272890474
 C,0,6.8623349139,1.8337236525,7.2130382807
 N,0,9.3963384843,3.7032712532,3.740999315
 C,0,10.3967714533,3.6243755955,2.8131919312
 O,0,10.9522220354,2.5848517153,2.4640592292
 O,0,10.6846927509,4.8620691556,2.3278628835
 C,0,11.8036661181,4.9144120028,1.3740557336
 H,0,9.0139720183,5.3166785217,-1.5710317783
 H,0,8.6287005635,3.7589408692,-2.3164863454
 H,0,10.0364706704,3.9053756002,-1.2607605258
 H,0,7.1103287039,4.2007348479,-0.3662828267
 H,0,8.510771149,4.3748478383,0.6919277577
 H,0,9.1390003422,2.0356792664,0.3761179824
 H,0,7.9044017226,1.8141425639,-0.8726445208
 H,0,6.1196758942,2.2110376088,0.8574626013
 H,0,7.3695502137,2.463229945,2.0646412387
 H,0,8.1807882849,0.0226409268,1.2749782687
 H,0,6.5079232514,-0.123275297,0.7196504969
 H,0,6.0372213752,-1.3933571818,5.2582618458
 H,0,5.2683140911,-1.1270970899,7.5954398293
 H,0,5.7944433786,0.9477217596,8.8410094728
 H,0,7.0789954686,2.7610027239,7.7178287726
 H,0,9.0853208459,4.6110760117,4.0647662707
 H,0,12.0121527652,5.9709830561,1.2519813588
 H,0,11.5069171692,4.4649281871,0.4303492629
 H,0,12.6640827848,4.3821181886,1.7720934195
 Recover connectivity data from disk.
 ITRead=  0  0  0  0  0  0  0  0  0  0  0  0  0  0  0  0  0  0  0  0
 ITRead=  0  0  0  0  0  0  0  0  0  0  0  0  0  0  0  0  0  0  0  0
 ITRead=  0
 MicOpt= -1 -1 -1 -1 -1 -1 -1 -1 -1 -1 -1 -1 -1 -1 -1 -1 -1 -1 -1 -1
 MicOpt= -1 -1 -1 -1 -1 -1 -1 -1 -1 -1 -1 -1 -1 -1 -1 -1 -1 -1 -1 -1
 MicOpt= -1
                           ----------------------------
                           !    Current Parameters    !
                           ! (Angstroms and Degrees)  !
 --------------------------                            --------------------------
 ! Name  Definition              Value                                          !
 --------------------------------------------------------------------------------
 ! R1    R(1,2)                  1.5403                                         !
 ! R2    R(1,23)                 1.0914                                         !
 ! R3    R(1,24)                 1.0917                                         !
 ! R4    R(1,25)                 1.0926                                         !
 ! R5    R(2,3)                  1.5419                                         !
 ! R6    R(2,26)                 1.0934                                         !
 ! R7    R(2,27)                 1.094                                          !
 ! R8    R(3,4)                  1.5397                                         !
 ! R9    R(3,28)                 1.0943                                         !
 ! R10   R(3,29)                 1.0942                                         !
 ! R11   R(4,5)                  1.5556                                         !
 ! R12   R(4,30)                 1.0918                                         !
 ! R13   R(4,31)                 1.0893                                         !
 ! R14   R(5,6)                  1.5183                                         !
 ! R15   R(5,32)                 1.089                                          !
 ! R16   R(5,33)                 1.0878                                         !
 ! R17   R(6,7)                  1.2269                                         !
 ! R18   R(6,8)                  1.4146                                         !
 ! R19   R(8,9)                  1.7226                                         !
 ! R20   R(8,13)                 1.43                                           !
 ! R21   R(9,10)                 1.7983                                         !
 ! R22   R(10,11)                1.2744                                         !
 ! R23   R(10,18)                1.3906                                         !
 ! R24   R(11,12)                1.4062                                         !
 ! R25   R(12,13)                1.4059                                         !
 ! R26   R(12,17)                1.3953                                         !
 ! R27   R(13,14)                1.391                                          !
 ! R28   R(14,15)                1.389                                          !
 ! R29   R(14,34)                1.0742                                         !
 ! R30   R(15,16)                1.3944                                         !
 ! R31   R(15,35)                1.0789                                         !
 ! R32   R(16,17)                1.3855                                         !
 ! R33   R(16,36)                1.0789                                         !
 ! R34   R(17,37)                1.0778                                         !
 ! R35   R(18,19)                1.3667                                         !
 ! R36   R(18,38)                1.0128                                         !
 ! R37   R(19,20)                1.2292                                         !
 ! R38   R(19,21)                1.3603                                         !
 ! R39   R(21,22)                1.4713                                         !
 ! R40   R(22,39)                1.0838                                         !
 ! R41   R(22,40)                1.0866                                         !
 ! R42   R(22,41)                1.0872                                         !
 ! A1    A(2,1,23)             111.2195                                         !
 ! A2    A(2,1,24)             110.5294                                         !
 ! A3    A(2,1,25)             110.5273                                         !
 ! A4    A(23,1,24)            108.2875                                         !
 ! A5    A(23,1,25)            108.2966                                         !
 ! A6    A(24,1,25)            107.8727                                         !
 ! A7    A(1,2,3)              111.826                                          !
 ! A8    A(1,2,26)             109.3986                                         !
 ! A9    A(1,2,27)             109.3339                                         !
 ! A10   A(3,2,26)             109.4987                                         !
 ! A11   A(3,2,27)             109.1945                                         !
 ! A12   A(26,2,27)            107.4886                                         !
 ! A13   A(2,3,4)              112.5364                                         !
 ! A14   A(2,3,28)             108.8281                                         !
 ! A15   A(2,3,29)             109.3849                                         !
 ! A16   A(4,3,28)             108.5026                                         !
 ! A17   A(4,3,29)             109.5277                                         !
 ! A18   A(28,3,29)            107.9497                                         !
 ! A19   A(3,4,5)              111.9257                                         !
 ! A20   A(3,4,30)             110.1947                                         !
 ! A21   A(3,4,31)             108.6124                                         !
 ! A22   A(5,4,30)             108.9908                                         !
 ! A23   A(5,4,31)             109.778                                          !
 ! A24   A(30,4,31)            107.2264                                         !
 ! A25   A(4,5,6)              111.7358                                         !
 ! A26   A(4,5,32)             109.3786                                         !
 ! A27   A(4,5,33)             110.0431                                         !
 ! A28   A(6,5,32)             110.5884                                         !
 ! A29   A(6,5,33)             106.3338                                         !
 ! A30   A(32,5,33)            108.6824                                         !
 ! A31   A(5,6,7)              123.9622                                         !
 ! A32   A(5,6,8)              115.5853                                         !
 ! A33   A(7,6,8)              120.4508                                         !
 ! A34   A(6,8,9)              121.8437                                         !
 ! A35   A(6,8,13)             121.0567                                         !
 ! A36   A(9,8,13)             116.5102                                         !
 ! A37   A(8,9,10)              93.3049                                         !
 ! A38   A(9,10,11)            122.7729                                         !
 ! A39   A(9,10,18)            118.0754                                         !
 ! A40   A(11,10,18)           119.1434                                         !
 ! A41   A(10,11,12)           122.3612                                         !
 ! A42   A(11,12,13)           122.2354                                         !
 ! A43   A(11,12,17)           118.5044                                         !
 ! A44   A(13,12,17)           119.2315                                         !
 ! A45   A(8,13,12)            116.2134                                         !
 ! A46   A(8,13,14)            123.4411                                         !
 ! A47   A(12,13,14)           120.2706                                         !
 ! A48   A(13,14,15)           119.6857                                         !
 ! A49   A(13,14,34)           119.234                                          !
 ! A50   A(15,14,34)           121.052                                          !
 ! A51   A(14,15,16)           120.4041                                         !
 ! A52   A(14,15,35)           119.5083                                         !
 ! A53   A(16,15,35)           120.0857                                         !
 ! A54   A(15,16,17)           119.941                                          !
 ! A55   A(15,16,36)           120.1126                                         !
 ! A56   A(17,16,36)           119.9391                                         !
 ! A57   A(12,17,16)           120.4209                                         !
 ! A58   A(12,17,37)           117.906                                          !
 ! A59   A(16,17,37)           121.669                                          !
 ! A60   A(10,18,19)           123.5615                                         !
 ! A61   A(10,18,38)           116.8382                                         !
 ! A62   A(19,18,38)           119.5752                                         !
 ! A63   A(18,19,20)           124.9172                                         !
 ! A64   A(18,19,21)           110.1588                                         !
 ! A65   A(20,19,21)           124.9234                                         !
 ! A66   A(19,21,22)           115.1291                                         !
 ! A67   A(21,22,39)           104.7144                                         !
 ! A68   A(21,22,40)           109.9147                                         !
 ! A69   A(21,22,41)           110.3119                                         !
 ! A70   A(39,22,40)           110.9756                                         !
 ! A71   A(39,22,41)           111.4858                                         !
 ! A72   A(40,22,41)           109.3636                                         !
 ! D1    D(23,1,2,3)          -178.8913                                         !
 ! D2    D(23,1,2,26)           59.6269                                         !
 ! D3    D(23,1,2,27)          -57.8372                                         !
 ! D4    D(24,1,2,3)            60.7888                                         !
 ! D5    D(24,1,2,26)          -60.693                                          !
 ! D6    D(24,1,2,27)         -178.157                                          !
 ! D7    D(25,1,2,3)           -58.5614                                         !
 ! D8    D(25,1,2,26)          179.9568                                         !
 ! D9    D(25,1,2,27)           62.4928                                         !
 ! D10   D(1,2,3,4)           -172.5583                                         !
 ! D11   D(1,2,3,28)            67.1436                                         !
 ! D12   D(1,2,3,29)           -50.5762                                         !
 ! D13   D(26,2,3,4)           -51.1343                                         !
 ! D14   D(26,2,3,28)         -171.4324                                         !
 ! D15   D(26,2,3,29)           70.8478                                         !
 ! D16   D(27,2,3,4)            66.3067                                         !
 ! D17   D(27,2,3,28)          -53.9914                                         !
 ! D18   D(27,2,3,29)         -171.7112                                         !
 ! D19   D(2,3,4,5)           -178.8152                                         !
 ! D20   D(2,3,4,30)            59.7302                                         !
 ! D21   D(2,3,4,31)           -57.4529                                         !
 ! D22   D(28,3,4,5)           -58.3296                                         !
 ! D23   D(28,3,4,30)         -179.7841                                         !
 ! D24   D(28,3,4,31)           63.0328                                         !
 ! D25   D(29,3,4,5)            59.2836                                         !
 ! D26   D(29,3,4,30)          -62.1709                                         !
 ! D27   D(29,3,4,31)         -179.354                                          !
 ! D28   D(3,4,5,6)            155.9725                                         !
 ! D29   D(3,4,5,32)            33.1846                                         !
 ! D30   D(3,4,5,33)           -86.1409                                         !
 ! D31   D(30,4,5,6)           -81.8818                                         !
 ! D32   D(30,4,5,32)          155.3303                                         !
 ! D33   D(30,4,5,33)           36.0048                                         !
 ! D34   D(31,4,5,6)            35.2848                                         !
 ! D35   D(31,4,5,32)          -87.5031                                         !
 ! D36   D(31,4,5,33)          153.1714                                         !
 ! D37   D(4,5,6,7)            107.796                                          !
 ! D38   D(4,5,6,8)            -71.7311                                         !
 ! D39   D(32,5,6,7)          -130.1082                                         !
 ! D40   D(32,5,6,8)            50.3647                                         !
 ! D41   D(33,5,6,7)           -12.2909                                         !
 ! D42   D(33,5,6,8)           168.1821                                         !
 ! D43   D(5,6,8,9)             -8.1127                                         !
 ! D44   D(5,6,8,13)           162.7764                                         !
 ! D45   D(7,6,8,9)            172.3423                                         !
 ! D46   D(7,6,8,13)           -16.7686                                         !
 ! D47   D(6,8,9,10)           116.5062                                         !
 ! D48   D(13,8,9,10)          -54.775                                          !
 ! D49   D(6,8,13,12)         -127.6399                                         !
 ! D50   D(6,8,13,14)           49.2127                                         !
 ! D51   D(9,8,13,12)           43.7148                                         !
 ! D52   D(9,8,13,14)         -139.4326                                         !
 ! D53   D(8,9,10,11)           34.9588                                         !
 ! D54   D(8,9,10,18)         -143.9787                                         !
 ! D55   D(9,10,11,12)          -0.9402                                         !
 ! D56   D(18,10,11,12)        177.9864                                         !
 ! D57   D(9,10,18,19)         -10.9594                                         !
 ! D58   D(9,10,18,38)         170.8755                                         !
 ! D59   D(11,10,18,19)        170.0635                                         !
 ! D60   D(11,10,18,38)         -8.1016                                         !
 ! D61   D(10,11,12,13)        -23.7419                                         !
 ! D62   D(10,11,12,17)        158.2192                                         !
 ! D63   D(11,12,13,8)           1.1135                                         !
 ! D64   D(11,12,13,14)       -175.8456                                         !
 ! D65   D(17,12,13,8)         179.1387                                         !
 ! D66   D(17,12,13,14)          2.1795                                         !
 ! D67   D(11,12,17,16)        177.625                                          !
 ! D68   D(11,12,17,37)         -1.6508                                         !
 ! D69   D(13,12,17,16)         -0.4741                                         !
 ! D70   D(13,12,17,37)       -179.7499                                         !
 ! D71   D(8,13,14,15)        -179.0502                                         !
 ! D72   D(8,13,14,34)          -0.9641                                         !
 ! D73   D(12,13,14,15)         -2.3198                                         !
 ! D74   D(12,13,14,34)        175.7663                                         !
 ! D75   D(13,14,15,16)          0.7565                                         !
 ! D76   D(13,14,15,35)       -179.7496                                         !
 ! D77   D(34,14,15,16)       -177.294                                          !
 ! D78   D(34,14,15,35)          2.1999                                         !
 ! D79   D(14,15,16,17)          0.9428                                         !
 ! D80   D(14,15,16,36)        179.965                                          !
 ! D81   D(35,15,16,17)       -178.5482                                         !
 ! D82   D(35,15,16,36)          0.4741                                         !
 ! D83   D(15,16,17,12)         -1.0754                                         !
 ! D84   D(15,16,17,37)        178.1727                                         !
 ! D85   D(36,16,17,12)        179.9007                                         !
 ! D86   D(36,16,17,37)         -0.8513                                         !
 ! D87   D(10,18,19,20)         -6.7381                                         !
 ! D88   D(10,18,19,21)        172.9962                                         !
 ! D89   D(38,18,19,20)        171.3793                                         !
 ! D90   D(38,18,19,21)         -8.8864                                         !
 ! D91   D(18,19,21,22)        176.6327                                         !
 ! D92   D(20,19,21,22)         -3.6331                                         !
 ! D93   D(19,21,22,39)       -169.1593                                         !
 ! D94   D(19,21,22,40)         71.5798                                         !
 ! D95   D(19,21,22,41)        -49.0928                                         !
 --------------------------------------------------------------------------------
 NAtoms=     41 NQM=       41 NQMF=       0 NMMI=      0 NMMIF=      0
                NMic=       0 NMicF=      0.
                    Isotopes and Nuclear Properties:
 (Nuclear quadrupole moments (NQMom) in fm**2, nuclear magnetic moments (NMagM)
  in nuclear magnetons)

  Atom         1           2           3           4           5           6           7           8           9          10
 IAtWgt=          12          12          12          12          12          12          16          14          32          12
 AtmWgt=  12.0000000  12.0000000  12.0000000  12.0000000  12.0000000  12.0000000  15.9949146  14.0030740  31.9720718  12.0000000
 NucSpn=           0           0           0           0           0           0           0           2           0           0
 AtZEff=   3.6000000   3.6000000   3.6000000   3.6000000   3.6000000   3.6000000   5.6000000   4.5500000  13.6000000   3.6000000
 NQMom=    0.0000000   0.0000000   0.0000000   0.0000000   0.0000000   0.0000000   0.0000000   2.0440000   0.0000000   0.0000000
 NMagM=    0.0000000   0.0000000   0.0000000   0.0000000   0.0000000   0.0000000   0.0000000   0.4037610   0.0000000   0.0000000
 AtZNuc=   6.0000000   6.0000000   6.0000000   6.0000000   6.0000000   6.0000000   8.0000000   7.0000000  16.0000000   6.0000000

  Atom        11          12          13          14          15          16          17          18          19          20
 IAtWgt=          14          12          12          12          12          12          12          14          12          16
 AtmWgt=  14.0030740  12.0000000  12.0000000  12.0000000  12.0000000  12.0000000  12.0000000  14.0030740  12.0000000  15.9949146
 NucSpn=           2           0           0           0           0           0           0           2           0           0
 AtZEff=   4.5500000   3.6000000   3.6000000   3.6000000   3.6000000   3.6000000   3.6000000   4.5500000   3.6000000   5.6000000
 NQMom=    2.0440000   0.0000000   0.0000000   0.0000000   0.0000000   0.0000000   0.0000000   2.0440000   0.0000000   0.0000000
 NMagM=    0.4037610   0.0000000   0.0000000   0.0000000   0.0000000   0.0000000   0.0000000   0.4037610   0.0000000   0.0000000
 AtZNuc=   7.0000000   6.0000000   6.0000000   6.0000000   6.0000000   6.0000000   6.0000000   7.0000000   6.0000000   8.0000000

  Atom        21          22          23          24          25          26          27          28          29          30
 IAtWgt=          16          12           1           1           1           1           1           1           1           1
 AtmWgt=  15.9949146  12.0000000   1.0078250   1.0078250   1.0078250   1.0078250   1.0078250   1.0078250   1.0078250   1.0078250
 NucSpn=           0           0           1           1           1           1           1           1           1           1
 AtZEff=   5.6000000   3.6000000   1.0000000   1.0000000   1.0000000   1.0000000   1.0000000   1.0000000   1.0000000   1.0000000
 NQMom=    0.0000000   0.0000000   0.0000000   0.0000000   0.0000000   0.0000000   0.0000000   0.0000000   0.0000000   0.0000000
 NMagM=    0.0000000   0.0000000   2.7928460   2.7928460   2.7928460   2.7928460   2.7928460   2.7928460   2.7928460   2.7928460
 AtZNuc=   8.0000000   6.0000000   1.0000000   1.0000000   1.0000000   1.0000000   1.0000000   1.0000000   1.0000000   1.0000000

  Atom        31          32          33          34          35          36          37          38          39          40
 IAtWgt=           1           1           1           1           1           1           1           1           1           1
 AtmWgt=   1.0078250   1.0078250   1.0078250   1.0078250   1.0078250   1.0078250   1.0078250   1.0078250   1.0078250   1.0078250
 NucSpn=           1           1           1           1           1           1           1           1           1           1
 AtZEff=   1.0000000   1.0000000   1.0000000   1.0000000   1.0000000   1.0000000   1.0000000   1.0000000   1.0000000   1.0000000
 NQMom=    0.0000000   0.0000000   0.0000000   0.0000000   0.0000000   0.0000000   0.0000000   0.0000000   0.0000000   0.0000000
 NMagM=    2.7928460   2.7928460   2.7928460   2.7928460   2.7928460   2.7928460   2.7928460   2.7928460   2.7928460   2.7928460
 AtZNuc=   1.0000000   1.0000000   1.0000000   1.0000000   1.0000000   1.0000000   1.0000000   1.0000000   1.0000000   1.0000000

  Atom        41
 IAtWgt=           1
 AtmWgt=   1.0078250
 NucSpn=           1
 AtZEff=   1.0000000
 NQMom=    0.0000000
 NMagM=    2.7928460
 AtZNuc=   1.0000000
 Leave Link  101 at Mon Aug 11 19:43:31 2025, MaxMem=  2147483648 cpu:               0.5 elap:               0.1
 (Enter /opt/apps/pkg/applications/licensed/gaussian/v16/x86_64AVX2/g16/l202.exe)
                          Input orientation:                          
 ---------------------------------------------------------------------
 Center     Atomic      Atomic             Coordinates (Angstroms)
 Number     Number       Type             X           Y           Z
 ---------------------------------------------------------------------
      1          6           0        9.006319    4.237191   -1.410642
      2          6           0        8.135446    3.859986   -0.197438
      3          6           0        8.136798    2.339458    0.058620
      4          6           0        7.131916    1.923679    1.148635
      5          6           0        7.166022    0.391604    1.416221
      6          6           0        6.663596    0.052644    2.808276
      7          8           0        5.583306   -0.482791    3.035567
      8          7           0        7.526898    0.405170    3.871981
      9         16           0        9.127184    0.978036    3.592006
     10          6           0        8.787280    2.590827    4.311287
     11          7           0        8.001569    2.752825    5.301489
     12          6           0        7.318139    1.681290    5.903173
     13          6           0        7.046492    0.484882    5.216544
     14          6           0        6.292775   -0.515339    5.821823
     15          6           0        5.849278   -0.347723    7.127360
     16          6           0        6.141775    0.822240    7.827289
     17          6           0        6.862335    1.833724    7.213038
     18          7           0        9.396338    3.703271    3.740999
     19          6           0       10.396771    3.624376    2.813192
     20          8           0       10.952222    2.584852    2.464059
     21          8           0       10.684693    4.862069    2.327863
     22          6           0       11.803666    4.914412    1.374056
     23          1           0        9.013972    5.316679   -1.571032
     24          1           0        8.628701    3.758941   -2.316486
     25          1           0       10.036471    3.905376   -1.260761
     26          1           0        7.110329    4.200735   -0.366283
     27          1           0        8.510771    4.374848    0.691928
     28          1           0        9.139000    2.035679    0.376118
     29          1           0        7.904402    1.814143   -0.872645
     30          1           0        6.119676    2.211038    0.857463
     31          1           0        7.369550    2.463230    2.064641
     32          1           0        8.180788    0.022641    1.274978
     33          1           0        6.507923   -0.123275    0.719650
     34          1           0        6.037221   -1.393357    5.258262
     35          1           0        5.268314   -1.127097    7.595440
     36          1           0        5.794443    0.947722    8.841009
     37          1           0        7.078995    2.761003    7.717829
     38          1           0        9.085321    4.611076    4.064766
     39          1           0       12.012153    5.970983    1.251981
     40          1           0       11.506917    4.464928    0.430349
     41          1           0       12.664083    4.382118    1.772093
 ---------------------------------------------------------------------
                    Distance matrix (angstroms):
                    1          2          3          4          5
     1  C    0.000000
     2  C    1.540314   0.000000
     3  C    2.552682   1.541938   0.000000
     4  C    3.926273   2.562864   1.539738   0.000000
     5  C    5.115309   3.946309   2.565078   1.555641   0.000000
     6  C    6.387335   5.069172   3.867874   2.544504   1.518269
     7  O    7.332395   5.985437   4.831938   3.427798   2.427310
     8  N    6.691725   5.372733   4.319163   3.143007   2.482171
     9  S    5.971866   4.863031   3.913969   3.293235   2.987323
    10  C    5.958101   4.729086   4.309465   3.631485   3.980762
    11  N    6.947343   5.610876   5.260878   4.323191   4.622641
    12  C    7.929342   6.529331   5.938197   4.764353   4.671099
    13  C    7.863863   6.472121   5.588596   4.315706   3.803346
    14  C    9.069642   7.666186   6.690649   5.337756   4.581967
    15  C   10.192439   8.751231   7.900682   6.523004   5.907412
    16  C   10.257040   8.809022   8.162983   6.840904   6.506636
    17  C    9.205497   7.787279   7.284623   6.071058   5.981222
    18  N    5.193900   4.138321   4.123875   3.874908   4.620178
    19  C    4.488839   3.772665   3.787633   4.040099   4.779130
    20  O    4.640051   4.079677   3.711195   4.094170   4.499290
    21  O    4.145339   3.725584   4.243206   4.758880   5.761701
    22  C    4.004788   4.127620   4.669763   5.551626   6.478064
    23  H    1.091365   2.186440   3.505573   4.738267   6.049377
    24  H    1.091729   2.178044   2.810343   4.197096   5.235599
    25  H    1.092602   2.178671   2.793138   4.262481   5.268045
    26  H    2.164900   1.093382   2.167610   2.735037   4.205937
    27  H    2.164559   1.094040   2.164197   2.849220   4.266050
    28  H    2.838445   2.159672   1.094302   2.153535   2.770820
    29  H    2.715663   2.166739   1.094174   2.166634   2.794231
    30  H    4.193126   2.809835   2.173344   1.091781   2.171956
    31  H    4.231258   2.766682   2.151304   1.089336   2.180254
    32  H    5.065224   4.110387   2.617079   2.174866   1.088960
    33  H    5.458369   4.399574   3.025764   2.182525   1.087844
    34  H    9.219159   7.859060   6.736350   5.393525   4.384239
    35  H   11.129141   9.686093   8.777748   7.371671   6.640067
    36  H   11.235351   9.780343   9.195321   7.868542   7.570863
    37  H    9.445776   8.060726   7.743393   6.622554   6.732895
    38  H    5.488727   4.430890   4.702037   4.420601   5.338768
    39  H    4.373858   4.646072   5.443387   6.340983   7.391984
    40  H    3.113536   3.482369   4.001689   5.110237   6.033845
    41  H    4.850778   4.965907   5.254023   6.085844   6.802906
                    6          7          8          9         10
     6  C    0.000000
     7  O    1.226939   0.000000
     8  N    1.414578   2.294692   0.000000
     9  S    2.745878   3.873334   1.722637   0.000000
    10  C    3.634756   4.619529   2.560987   1.798331   0.000000
    11  N    3.911171   4.631589   2.789317   2.709099   1.274396
    12  C    3.557991   3.989493   2.407863   3.018063   2.349411
    13  C    2.476528   2.798922   1.430033   2.685444   2.878340
    14  C    3.088944   2.875348   2.484407   3.903348   4.260580
    15  C    4.413377   4.102652   3.738816   5.000103   5.019681
    16  C    5.104416   4.997559   4.211529   5.184068   4.742243
    17  C    4.755383   4.945040   3.693924   4.355872   3.563535
    18  N    4.654560   5.706134   3.793341   2.742545   1.390580
    19  C    5.166612   6.331486   4.440776   3.036695   2.429603
    20  O    4.992281   6.209856   4.297221   2.680463   2.845920
    21  O    6.287335   7.422434   5.676260   4.371453   3.562679
    22  C    7.219009   8.401387   6.698033   5.251468   4.808841
    23  H    7.239659   8.162357   7.480688   6.744894   6.487166
    24  H    6.622798   7.477379   7.124527   6.549214   6.731791
    25  H    6.540403   7.585850   6.700331   5.739814   5.859712
    26  H    5.242523   5.986635   5.704623   5.488310   5.223373
    27  H    5.154845   6.136722   5.180646   4.508741   4.044620
    28  H    3.996929   5.104736   4.180729   3.385363   3.989668
    29  H    4.265167   5.092888   4.963787   4.703974   5.315624
    30  H    2.959761   3.505502   3.785334   4.247720   4.380554
    31  H    2.619597   3.579442   2.743510   2.761869   2.659635
    32  H    2.157261   3.178372   2.705240   2.679004   4.022758
    33  H    2.101794   2.519452   3.354810   4.040277   5.045956
    34  H    2.913022   2.444492   2.715807   4.236483   4.932881
    35  H    5.124016   4.615928   4.616621   5.945582   6.082084
    36  H    6.160395   5.982818   5.290274   6.217726   5.672324
    37  H    5.622408   5.889216   4.532230   4.939278   3.814672
    38  H    5.312515   6.266645   4.489487   3.663910   2.056941
    39  H    8.127474   9.282373   7.613159   6.223205   5.584318
    40  H    6.969974   8.145935   6.645827   5.274241   5.096112
    41  H    7.471536   8.683381   6.827614   5.235409   4.968483
                   11         12         13         14         15
    11  N    0.000000
    12  C    1.406160   0.000000
    13  C    2.462307   1.405932   0.000000
    14  C    3.724462   2.425524   1.391004   0.000000
    15  C    4.192798   2.788025   2.403699   1.388961   0.000000
    16  C    3.683159   2.413302   2.783579   2.415329   1.394370
    17  C    2.407617   1.395257   2.416460   2.788902   2.406727
    18  N    2.298664   3.616948   4.249358   5.635477   6.360788
    19  C    3.562052   4.775095   5.182364   6.559869   7.420870
    20  O    4.097020   5.084337   5.219270   6.526577   7.509088
    21  O    4.526645   5.850972   6.382849   7.772594   8.576616
    22  C    5.878191   7.147442   7.550905   8.923830   9.810469
    23  H    7.404718   8.482666   8.560866   9.801614  10.851855
    24  H    7.709677   8.578869   8.364771   9.484624  10.666588
    25  H    6.966514   7.978585   7.911715   9.149916  10.294756
    26  H    5.917296   6.759945   6.706683   7.823196   8.856263
    27  H    4.913075   5.986209   6.143949   7.426254   8.414333
    28  H    5.105617   5.830048   5.496662   6.653149   7.879222
    29  H    6.245838   6.802430   6.291356   7.269093   8.537990
    30  H    4.856380   5.213074   4.779141   5.666389   6.777314
    31  H    3.310664   3.917703   3.735334   4.914034   5.986969
    32  H    4.868143   4.991539   4.127498   4.952556   6.310585
    33  H    5.612146   5.548136   4.569679   5.121734   6.445381
    34  H    4.588176   3.392657   2.132639   1.074162   2.149931
    35  H    5.271308   3.866858   3.379280   2.137636   1.078908
    36  H    4.545108   3.389787   3.862460   3.391809   2.148902
    37  H    2.586485   2.125075   3.382042   3.866186   3.394854
    38  H    2.481350   3.884110   4.744354   6.096367   6.666419
    39  H    6.545215   7.878376   8.394811   9.780956  10.603167
    40  H    6.240734   7.432785   7.657926   9.003239  10.001022
    41  H    6.070442   7.275947   7.655718   8.998831   9.873795
                   16         17         18         19         20
    16  C    0.000000
    17  C    1.385500   0.000000
    18  N    5.965760   4.687370   0.000000
    19  C    7.148296   5.920923   1.366718   0.000000
    20  O    7.416969   6.312224   2.302653   1.229239   0.000000
    21  O    8.197683   6.902625   2.235984   1.360268   2.296920
    22  C    9.510368   8.246279   3.586713   2.390535   2.709228
    23  H   10.806384   9.691254   5.564797   4.898718   5.244202
    24  H   10.849202   9.881212   6.106185   5.427502   5.443423
    25  H   10.356980   9.282895   5.046604   4.099496   4.056682
    26  H    8.915545   7.944202   4.726846   4.608900   5.038061
    27  H    8.315440   7.190239   3.245317   2.935978   3.507879
    28  H    8.122546   7.208847   3.764241   3.169428   2.819373
    29  H    8.931941   8.152580   5.203882   4.803565   4.584408
    30  H    7.106879   6.409934   4.612815   4.910799   5.106309
    31  H    6.116240   5.211481   2.907877   3.327560   3.606919
    32  H    6.908669   6.346566   4.594112   4.499908   3.957232
    33  H    7.179595   6.791137   5.666917   5.792318   5.488962
    34  H    3.394069   3.862126   6.289783   7.082492   6.913100
    35  H    2.148628   3.384316   7.431672   8.470387   8.509785
    36  H    1.078895   2.139084   6.824720   8.042418   8.363514
    37  H    2.156193   1.077776   4.698204   5.984021   6.529549
    38  H    6.097239   4.750470   1.012752   2.063957   3.186404
    39  H   10.208113   8.897850   4.263826   3.248600   3.749463
    40  H    9.837106   8.631353   3.999383   2.759872   2.824597
    41  H    9.585334   8.352154   3.874994   2.607443   2.576713
                   21         22         23         24         25
    21  O    0.000000
    22  C    1.471254   0.000000
    23  H    4.266070   4.076488   0.000000
    24  H    5.197497   5.003561   1.769374   0.000000
    25  H    3.770102   3.329173   1.770183   1.765734   0.000000
    26  H    4.524584   5.056237   2.514082   2.510763   3.074026
    27  H    2.763983   3.405816   2.502247   3.073077   2.522133
    28  H    3.766557   4.047644   3.817326   3.237307   2.642080
    29  H    5.221410   5.464759   3.739873   2.528147   3.011579
    30  H    5.479911   6.315287   4.890761   4.331877   4.764340
    31  H    4.100474   5.113373   4.905549   4.739051   4.500061
    32  H    5.549610   6.088061   6.068015   5.201844   4.994913
    33  H    6.699657   7.338353   6.412535   5.365391   5.709878
    34  H    8.325658   9.387593  10.026209   9.520439   9.304204
    35  H    9.641299  10.858926  11.814246  11.550405  11.246928
    36  H    9.036467  10.373080  11.741540  11.850134  11.348492
    37  H    6.816690   8.197752   9.826421  10.202203   9.522149
    38  H    2.374410   3.836839   5.680245   6.454070   5.455633
    39  H    2.036998   1.083841   4.169725   5.392109   3.805775
    40  H    2.105785   1.086590   3.308441   4.040749   2.309797
    41  H    2.111212   1.087238   5.037182   5.778334   4.041019
                   26         27         28         29         30
    26  H    0.000000
    27  H    1.763906   0.000000
    28  H    3.058453   2.442564   0.000000
    29  H    2.565692   3.061500   1.769949   0.000000
    30  H    2.537290   3.229058   3.062477   2.517150   0.000000
    31  H    2.999252   2.615533   2.482914   3.055328   1.755866
    32  H    4.614769   4.403469   2.403839   2.810365   3.035059
    33  H    4.498801   4.923950   3.420770   2.870391   2.370389
    34  H    8.005056   7.761575   6.724184   7.166759   5.689068
    35  H    9.755400   9.404435   8.780887   9.343891   7.567582
    36  H    9.853318   9.248306   9.166466   9.977860   8.089423
    37  H    8.211374   7.349678   7.659663   8.681824   6.948912
    38  H    4.868590   3.429570   4.499075   5.796157   4.984178
    39  H    5.457145   3.888571   4.950632   6.218278   7.001008
    40  H    4.475982   3.008892   3.392819   4.658602   5.855324
    41  H    5.953968   4.291481   4.458781   6.020274   6.955530
                   31         32         33         34         35
    31  H    0.000000
    32  H    2.690381   0.000000
    33  H    3.039969   1.768660   0.000000
    34  H    5.181465   4.739882   4.736419   0.000000
    35  H    6.920648   7.053555   7.058383   2.474775   0.000000
    36  H    7.120175   7.987193   8.222686   4.286685   2.476516
    37  H    5.668476   7.086811   7.590763   4.938974   4.290789
    38  H    3.399649   5.445625   6.344041   6.838754   7.743502
    39  H    5.875245   7.075497   8.229210  10.294833  11.666258
    40  H    4.878064   5.613417   6.791557   9.356592  11.024039
    41  H    5.639130   6.273125   7.700942   9.456468  10.906888
                   36         37         38         39         40
    36  H    0.000000
    37  H    2.489899   0.000000
    38  H    6.860214   4.559932   0.000000
    39  H   11.022087   8.743409   4.281057   0.000000
    40  H   10.758360   8.695816   4.369723   1.788447   0.000000
    41  H   10.438228   8.317030   4.256326   1.794442   1.773744
                   41
    41  H    0.000000
 Symmetry turned off by external request.
 Stoichiometry    C15H19N3O3S
 Framework group  C1[X(C15H19N3O3S)]
 Deg. of freedom   117
 Full point group                 C1      NOp   1
 Rotational constants (GHZ):           0.4617917           0.1776958           0.1430811
 Leave Link  202 at Mon Aug 11 19:43:31 2025, MaxMem=  2147483648 cpu:               0.0 elap:               0.0
 (Enter /opt/apps/pkg/applications/licensed/gaussian/v16/x86_64AVX2/g16/l301.exe)
 Standard basis: 3-21G* (6D, 7F)
 Ernie: Thresh=  0.10000D-02 Tol=  0.10000D-05 Strict=F.
   246 basis functions,   405 primitive gaussians,   246 cartesian basis functions
    85 alpha electrons       85 beta electrons
       nuclear repulsion energy      2042.8412642504 Hartrees.
 IExCor= 4336 DFT=T Ex+Corr=M062X ExCW=0 ScaHFX=  0.540000
 ScaDFX=  1.000000  1.000000  1.000000  1.000000 ScalE2=  1.000000  1.000000
 IRadAn=      5 IRanWt=     -1 IRanGd=            0 ICorTp=0 IEmpDi=  4
 NAtoms=   41 NActive=   41 NUniq=   41 SFac= 1.00D+00 NAtFMM=   60 NAOKFM=F Big=F
 Integral buffers will be    131072 words long.
 Regular integral format.
 Two-electron integral symmetry is turned off.
 Leave Link  301 at Mon Aug 11 19:43:31 2025, MaxMem=  2147483648 cpu:               0.1 elap:               0.0
 (Enter /opt/apps/pkg/applications/licensed/gaussian/v16/x86_64AVX2/g16/l302.exe)
 NPDir=0 NMtPBC=     1 NCelOv=     1 NCel=       1 NClECP=     1 NCelD=      1
         NCelK=      1 NCelE2=     1 NClLst=     1 CellRange=     0.0.
 One-electron integrals computed using PRISM.
 NBasis=   246 RedAO= T EigKep=  1.35D-03  NBF=   246
 NBsUse=   246 1.00D-06 EigRej= -1.00D+00 NBFU=   246
 Precomputing XC quadrature grid using
 IXCGrd= 4 IRadAn=           5 IRanWt=          -1 IRanGd=           0 AccXCQ= 0.00D+00.
 Generated NRdTot=       0 NPtTot=           0 NUsed=           0 NTot=          32
 NSgBfM=   241   240   241   241   241 MxSgAt=    41 MxSgA2=    41.
 Leave Link  302 at Mon Aug 11 19:43:32 2025, MaxMem=  2147483648 cpu:               3.2 elap:               1.1
 (Enter /opt/apps/pkg/applications/licensed/gaussian/v16/x86_64AVX2/g16/l303.exe)
 DipDrv:  MaxL=1.
 Leave Link  303 at Mon Aug 11 19:43:32 2025, MaxMem=  2147483648 cpu:               0.1 elap:               0.0
 (Enter /opt/apps/pkg/applications/licensed/gaussian/v16/x86_64AVX2/g16/l308.exe)
 Leave Link  308 at Mon Aug 11 19:43:32 2025, MaxMem=  2147483648 cpu:               0.1 elap:               0.0
 (Enter /opt/apps/pkg/applications/licensed/gaussian/v16/x86_64AVX2/g16/l401.exe)
 Initial guess from the checkpoint file:  "ZINC000001580372_07_td.chk"
 B after Tr=     0.000000    0.000000    0.000000
         Rot=    1.000000    0.000000    0.000000    0.000000 Ang=   0.00 deg.
 Guess basis will be translated and rotated to current coordinates.
 JPrj=2 DoOrth=T DoCkMO=T.
 Leave Link  401 at Mon Aug 11 19:43:32 2025, MaxMem=  2147483648 cpu:               0.3 elap:               0.1
 (Enter /opt/apps/pkg/applications/licensed/gaussian/v16/x86_64AVX2/g16/l502.exe)
 Two-electron integral symmetry not used.
 Closed shell SCF:
 Using DIIS extrapolation, IDIIS=  1040.
 NGot=  2147483648 LenX=  2147358467 LenY=  2147297510
 Requested convergence on RMS density matrix=1.00D-08 within 128 cycles.
 Requested convergence on MAX density matrix=1.00D-06.
 Requested convergence on             energy=1.00D-06.
 No special actions if energy rises.
 Fock matrices will be formed incrementally for  20 cycles.

 Cycle   1  Pass 1  IDiag  1:
 FoFJK:  IHMeth= 1 ICntrl=       0 DoSepK=F KAlg= 0 I1Cent=           0 FoldK=F
 IRaf= 730000000 NMat=       1 IRICut=       1 DoRegI=T DoRafI=F ISym2E= 0 IDoP0=0 IntGTp=1.
 FoFCou: FMM=F IPFlag=           0 FMFlag=      100000 FMFlg1=           0
         NFxFlg=           0 DoJE=F BraDBF=F KetDBF=F FulRan=T
         wScrn=  0.000000 ICntrl=         0 IOpCl=  0 I1Cent=           0 NGrid=           0
         NMat0=    1 NMatS0=      1 NMatT0=    0 NMatD0=    1 NMtDS0=    0 NMtDT0=    0
 Symmetry not used in FoFCou.
 E= -1363.53327517991    
 DIIS: error= 6.21D-03 at cycle   1 NSaved=   1.
 NSaved= 1 IEnMin= 1 EnMin= -1363.53327517991     IErMin= 1 ErrMin= 6.21D-03
 ErrMax= 6.21D-03  0.00D+00 EMaxC= 1.00D-01 BMatC= 2.24D-02 BMatP= 2.24D-02
 IDIUse=3 WtCom= 9.38D-01 WtEn= 6.21D-02
 Coeff-Com:  0.100D+01
 Coeff-En:   0.100D+01
 Coeff:      0.100D+01
 Gap=     0.255 Goal=   None    Shift=    0.000
 GapD=    0.255 DampG=1.000 DampE=1.000 DampFc=1.0000 IDamp=-1.
 RMSDP=7.79D-04 MaxDP=3.76D-02              OVMax= 7.94D-03

 Cycle   2  Pass 1  IDiag  1:
 RMSU=  7.54D-04    CP:  9.93D-01
 E= -1363.54098841576     Delta-E=       -0.007713235845 Rises=F Damp=F
 DIIS: error= 2.29D-03 at cycle   2 NSaved=   2.
 NSaved= 2 IEnMin= 2 EnMin= -1363.54098841576     IErMin= 2 ErrMin= 2.29D-03
 ErrMax= 2.29D-03  0.00D+00 EMaxC= 1.00D-01 BMatC= 2.28D-03 BMatP= 2.24D-02
 IDIUse=3 WtCom= 9.77D-01 WtEn= 2.29D-02
 Coeff-Com:  0.145D+00 0.855D+00
 Coeff-En:   0.000D+00 0.100D+01
 Coeff:      0.141D+00 0.859D+00
 Gap=     0.255 Goal=   None    Shift=    0.000
 RMSDP=2.75D-04 MaxDP=7.15D-03 DE=-7.71D-03 OVMax= 6.65D-03

 Cycle   3  Pass 1  IDiag  1:
 RMSU=  2.69D-04    CP:  9.92D-01  9.42D-01
 E= -1363.54152539906     Delta-E=       -0.000536983301 Rises=F Damp=F
 DIIS: error= 1.82D-03 at cycle   3 NSaved=   3.
 NSaved= 3 IEnMin= 3 EnMin= -1363.54152539906     IErMin= 3 ErrMin= 1.82D-03
 ErrMax= 1.82D-03  0.00D+00 EMaxC= 1.00D-01 BMatC= 1.44D-03 BMatP= 2.28D-03
 IDIUse=3 WtCom= 9.82D-01 WtEn= 1.82D-02
 Coeff-Com:  0.724D-04 0.441D+00 0.559D+00
 Coeff-En:   0.000D+00 0.389D+00 0.611D+00
 Coeff:      0.711D-04 0.440D+00 0.560D+00
 Gap=     0.255 Goal=   None    Shift=    0.000
 RMSDP=1.52D-04 MaxDP=4.51D-03 DE=-5.37D-04 OVMax= 5.19D-03

 Cycle   4  Pass 1  IDiag  1:
 RMSU=  7.88D-05    CP:  9.93D-01  1.00D+00  5.47D-01
 E= -1363.54243733101     Delta-E=       -0.000911931947 Rises=F Damp=F
 DIIS: error= 5.53D-04 at cycle   4 NSaved=   4.
 NSaved= 4 IEnMin= 4 EnMin= -1363.54243733101     IErMin= 4 ErrMin= 5.53D-04
 ErrMax= 5.53D-04  0.00D+00 EMaxC= 1.00D-01 BMatC= 9.67D-05 BMatP= 1.44D-03
 IDIUse=3 WtCom= 9.94D-01 WtEn= 5.53D-03
 Coeff-Com: -0.625D-02 0.188D+00 0.309D+00 0.509D+00
 Coeff-En:   0.000D+00 0.000D+00 0.000D+00 0.100D+01
 Coeff:     -0.622D-02 0.187D+00 0.307D+00 0.512D+00
 Gap=     0.255 Goal=   None    Shift=    0.000
 RMSDP=4.53D-05 MaxDP=1.81D-03 DE=-9.12D-04 OVMax= 1.53D-03

 Cycle   5  Pass 1  IDiag  1:
 RMSU=  2.36D-05    CP:  9.92D-01  1.00D+00  6.21D-01  5.93D-01
 E= -1363.54251444663     Delta-E=       -0.000077115621 Rises=F Damp=F
 DIIS: error= 1.22D-04 at cycle   5 NSaved=   5.
 NSaved= 5 IEnMin= 5 EnMin= -1363.54251444663     IErMin= 5 ErrMin= 1.22D-04
 ErrMax= 1.22D-04  0.00D+00 EMaxC= 1.00D-01 BMatC= 4.09D-06 BMatP= 9.67D-05
 IDIUse=3 WtCom= 9.99D-01 WtEn= 1.22D-03
 Coeff-Com: -0.296D-02 0.623D-01 0.115D+00 0.245D+00 0.581D+00
 Coeff-En:   0.000D+00 0.000D+00 0.000D+00 0.000D+00 0.100D+01
 Coeff:     -0.295D-02 0.622D-01 0.115D+00 0.245D+00 0.581D+00
 Gap=     0.255 Goal=   None    Shift=    0.000
 RMSDP=8.80D-06 MaxDP=4.02D-04 DE=-7.71D-05 OVMax= 3.40D-04

 Cycle   6  Pass 1  IDiag  1:
 RMSU=  6.36D-06    CP:  9.92D-01  1.00D+00  6.20D-01  6.27D-01  7.79D-01
 E= -1363.54251770100     Delta-E=       -0.000003254375 Rises=F Damp=F
 DIIS: error= 2.70D-05 at cycle   6 NSaved=   6.
 NSaved= 6 IEnMin= 6 EnMin= -1363.54251770100     IErMin= 6 ErrMin= 2.70D-05
 ErrMax= 2.70D-05  0.00D+00 EMaxC= 1.00D-01 BMatC= 2.53D-07 BMatP= 4.09D-06
 IDIUse=1 WtCom= 1.00D+00 WtEn= 0.00D+00
 Coeff-Com: -0.274D-03-0.164D-02 0.136D-02 0.163D-01 0.202D+00 0.783D+00
 Coeff:     -0.274D-03-0.164D-02 0.136D-02 0.163D-01 0.202D+00 0.783D+00
 Gap=     0.255 Goal=   None    Shift=    0.000
 RMSDP=3.34D-06 MaxDP=1.94D-04 DE=-3.25D-06 OVMax= 1.52D-04

 Cycle   7  Pass 1  IDiag  1:
 RMSU=  2.65D-06    CP:  9.92D-01  1.00D+00  6.24D-01  6.32D-01  8.40D-01
                    CP:  8.92D-01
 E= -1363.54251793550     Delta-E=       -0.000000234501 Rises=F Damp=F
 DIIS: error= 1.13D-05 at cycle   7 NSaved=   7.
 NSaved= 7 IEnMin= 7 EnMin= -1363.54251793550     IErMin= 7 ErrMin= 1.13D-05
 ErrMax= 1.13D-05  0.00D+00 EMaxC= 1.00D-01 BMatC= 4.92D-08 BMatP= 2.53D-07
 IDIUse=1 WtCom= 1.00D+00 WtEn= 0.00D+00
 Coeff-Com:  0.124D-03-0.627D-02-0.953D-02-0.157D-01 0.480D-01 0.380D+00
 Coeff-Com:  0.603D+00
 Coeff:      0.124D-03-0.627D-02-0.953D-02-0.157D-01 0.480D-01 0.380D+00
 Coeff:      0.603D+00
 Gap=     0.256 Goal=   None    Shift=    0.000
 RMSDP=1.39D-06 MaxDP=5.24D-05 DE=-2.35D-07 OVMax= 7.93D-05

 Cycle   8  Pass 1  IDiag  1:
 RMSU=  1.06D-06    CP:  9.92D-01  1.00D+00  6.24D-01  6.34D-01  8.50D-01
                    CP:  9.83D-01  7.78D-01
 E= -1363.54251798605     Delta-E=       -0.000000050552 Rises=F Damp=F
 DIIS: error= 6.00D-06 at cycle   8 NSaved=   8.
 NSaved= 8 IEnMin= 8 EnMin= -1363.54251798605     IErMin= 8 ErrMin= 6.00D-06
 ErrMax= 6.00D-06  0.00D+00 EMaxC= 1.00D-01 BMatC= 5.43D-09 BMatP= 4.92D-08
 IDIUse=1 WtCom= 1.00D+00 WtEn= 0.00D+00
 Coeff-Com:  0.810D-04-0.218D-02-0.376D-02-0.937D-02-0.528D-02 0.448D-01
 Coeff-Com:  0.259D+00 0.717D+00
 Coeff:      0.810D-04-0.218D-02-0.376D-02-0.937D-02-0.528D-02 0.448D-01
 Coeff:      0.259D+00 0.717D+00
 Gap=     0.256 Goal=   None    Shift=    0.000
 RMSDP=5.32D-07 MaxDP=2.27D-05 DE=-5.06D-08 OVMax= 2.99D-05

 Cycle   9  Pass 1  IDiag  1:
 RMSU=  3.42D-07    CP:  9.92D-01  1.00D+00  6.25D-01  6.34D-01  8.61D-01
                    CP:  9.97D-01  8.78D-01  9.18D-01
 E= -1363.54251799275     Delta-E=       -0.000000006701 Rises=F Damp=F
 DIIS: error= 1.88D-06 at cycle   9 NSaved=   9.
 NSaved= 9 IEnMin= 9 EnMin= -1363.54251799275     IErMin= 9 ErrMin= 1.88D-06
 ErrMax= 1.88D-06  0.00D+00 EMaxC= 1.00D-01 BMatC= 9.66D-10 BMatP= 5.43D-09
 IDIUse=1 WtCom= 1.00D+00 WtEn= 0.00D+00
 Coeff-Com:  0.213D-04-0.462D-04-0.231D-03-0.231D-02-0.957D-02-0.400D-01
 Coeff-Com:  0.285D-01 0.339D+00 0.685D+00
 Coeff:      0.213D-04-0.462D-04-0.231D-03-0.231D-02-0.957D-02-0.400D-01
 Coeff:      0.285D-01 0.339D+00 0.685D+00
 Gap=     0.256 Goal=   None    Shift=    0.000
 RMSDP=2.18D-07 MaxDP=5.16D-06 DE=-6.70D-09 OVMax= 1.24D-05

 Cycle  10  Pass 1  IDiag  1:
 RMSU=  1.44D-07    CP:  9.92D-01  1.00D+00  6.25D-01  6.34D-01  8.63D-01
                    CP:  1.00D+00  9.16D-01  9.93D-01  8.96D-01
 E= -1363.54251799389     Delta-E=       -0.000000001133 Rises=F Damp=F
 DIIS: error= 7.70D-07 at cycle  10 NSaved=  10.
 NSaved=10 IEnMin=10 EnMin= -1363.54251799389     IErMin=10 ErrMin= 7.70D-07
 ErrMax= 7.70D-07  0.00D+00 EMaxC= 1.00D-01 BMatC= 1.16D-10 BMatP= 9.66D-10
 IDIUse=1 WtCom= 1.00D+00 WtEn= 0.00D+00
 Coeff-Com: -0.221D-05 0.320D-03 0.517D-03 0.391D-03-0.338D-02-0.253D-01
 Coeff-Com: -0.293D-01 0.446D-01 0.293D+00 0.719D+00
 Coeff:     -0.221D-05 0.320D-03 0.517D-03 0.391D-03-0.338D-02-0.253D-01
 Coeff:     -0.293D-01 0.446D-01 0.293D+00 0.719D+00
 Gap=     0.256 Goal=   None    Shift=    0.000
 RMSDP=8.89D-08 MaxDP=2.64D-06 DE=-1.13D-09 OVMax= 5.51D-06

 Cycle  11  Pass 1  IDiag  1:
 RMSU=  5.15D-08    CP:  9.92D-01  1.00D+00  6.25D-01  6.34D-01  8.63D-01
                    CP:  1.01D+00  9.27D-01  1.03D+00  1.01D+00  9.03D-01
 E= -1363.54251799405     Delta-E=       -0.000000000159 Rises=F Damp=F
 DIIS: error= 1.61D-07 at cycle  11 NSaved=  11.
 NSaved=11 IEnMin=11 EnMin= -1363.54251799405     IErMin=11 ErrMin= 1.61D-07
 ErrMax= 1.61D-07  0.00D+00 EMaxC= 1.00D-01 BMatC= 1.51D-11 BMatP= 1.16D-10
 IDIUse=1 WtCom= 1.00D+00 WtEn= 0.00D+00
 Coeff-Com: -0.375D-05 0.141D-03 0.258D-03 0.448D-03-0.150D-03-0.532D-02
 Coeff-Com: -0.153D-01-0.217D-01 0.209D-01 0.294D+00 0.727D+00
 Coeff:     -0.375D-05 0.141D-03 0.258D-03 0.448D-03-0.150D-03-0.532D-02
 Coeff:     -0.153D-01-0.217D-01 0.209D-01 0.294D+00 0.727D+00
 Gap=     0.256 Goal=   None    Shift=    0.000
 RMSDP=3.05D-08 MaxDP=6.35D-07 DE=-1.59D-10 OVMax= 2.36D-06

 Cycle  12  Pass 1  IDiag  1:
 RMSU=  1.61D-08    CP:  9.92D-01  1.00D+00  6.25D-01  6.34D-01  8.63D-01
                    CP:  1.01D+00  9.30D-01  1.04D+00  1.04D+00  1.02D+00
                    CP:  8.82D-01
 E= -1363.54251799407     Delta-E=       -0.000000000025 Rises=F Damp=F
 DIIS: error= 5.38D-08 at cycle  12 NSaved=  12.
 NSaved=12 IEnMin=12 EnMin= -1363.54251799407     IErMin=12 ErrMin= 5.38D-08
 ErrMax= 5.38D-08  0.00D+00 EMaxC= 1.00D-01 BMatC= 1.30D-12 BMatP= 1.51D-11
 IDIUse=1 WtCom= 1.00D+00 WtEn= 0.00D+00
 Coeff-Com: -0.957D-06 0.109D-04 0.313D-04 0.991D-04 0.347D-03 0.108D-02
 Coeff-Com: -0.184D-02-0.121D-01-0.288D-01 0.214D-01 0.250D+00 0.770D+00
 Coeff:     -0.957D-06 0.109D-04 0.313D-04 0.991D-04 0.347D-03 0.108D-02
 Coeff:     -0.184D-02-0.121D-01-0.288D-01 0.214D-01 0.250D+00 0.770D+00
 Gap=     0.256 Goal=   None    Shift=    0.000
 RMSDP=1.01D-08 MaxDP=1.98D-07 DE=-2.55D-11 OVMax= 6.86D-07

 Cycle  13  Pass 1  IDiag  1:
 RMSU=  5.82D-09    CP:  9.92D-01  1.00D+00  6.25D-01  6.34D-01  8.63D-01
                    CP:  1.01D+00  9.31D-01  1.04D+00  1.05D+00  1.04D+00
                    CP:  9.82D-01  9.11D-01
 E= -1363.54251799407     Delta-E=        0.000000000003 Rises=F Damp=F
 DIIS: error= 2.13D-08 at cycle  13 NSaved=  13.
 NSaved=13 IEnMin=12 EnMin= -1363.54251799407     IErMin=13 ErrMin= 2.13D-08
 ErrMax= 2.13D-08  0.00D+00 EMaxC= 1.00D-01 BMatC= 1.85D-13 BMatP= 1.30D-12
 IDIUse=1 WtCom= 1.00D+00 WtEn= 0.00D+00
 Coeff-Com:  0.244D-07-0.110D-04-0.157D-04-0.136D-04 0.152D-03 0.993D-03
 Coeff-Com:  0.111D-02-0.218D-02-0.142D-01-0.255D-01 0.165D-01 0.310D+00
 Coeff-Com:  0.713D+00
 Coeff:      0.244D-07-0.110D-04-0.157D-04-0.136D-04 0.152D-03 0.993D-03
 Coeff:      0.111D-02-0.218D-02-0.142D-01-0.255D-01 0.165D-01 0.310D+00
 Coeff:      0.713D+00
 Gap=     0.256 Goal=   None    Shift=    0.000
 RMSDP=3.73D-09 MaxDP=9.44D-08 DE= 2.73D-12 OVMax= 2.89D-07

 SCF Done:  E(RM062X) =  -1363.54251799     A.U. after   13 cycles
            NFock= 13  Conv=0.37D-08     -V/T= 2.0088
 KE= 1.351644350776D+03 PE=-7.274717854352D+03 EE= 2.516689721332D+03
 Leave Link  502 at Mon Aug 11 19:44:17 2025, MaxMem=  2147483648 cpu:             177.2 elap:              44.9
 (Enter /opt/apps/pkg/applications/licensed/gaussian/v16/x86_64AVX2/g16/l801.exe)
 DoSCS=F DFT=T ScalE2(SS,OS)=  1.000000  1.000000
 ExpMin= 1.42D-01 ExpMax= 1.21D+03 ExpMxC= 1.21D+03 IAcc=3 IRadAn=         5 AccDes= 0.00D+00
 HarFok:  IExCor=  205 AccDes= 0.00D+00 IRadAn=         5 IDoV=-2 UseB2=F ITyADJ=14
 ICtDFT= 12500011 ScaDFX=  1.000000  1.000000  1.000000  1.000000
 GSVD:  LWork=        -884 too small for GESVD, short by        3770 words or        3770 for optimal perf.
 Largest valence mixing into a core orbital is  2.98D-04
 Largest core mixing into a valence orbital is  9.05D-05
 Range of M.O.s used for correlation:    27   246
 NBasis=   246 NAE=    85 NBE=    85 NFC=    26 NFV=     0
 NROrb=    220 NOA=    59 NOB=    59 NVA=   161 NVB=   161
 Leave Link  801 at Mon Aug 11 19:44:17 2025, MaxMem=  2147483648 cpu:               0.7 elap:               0.2
 (Enter /opt/apps/pkg/applications/licensed/gaussian/v16/x86_64AVX2/g16/l914.exe)
 RHF ground state
 Keep R1, R2, and R3 ints in memory in canonical form, NReq=1418122796.
 FoFCou: FMM=F IPFlag=           0 FMFlag=           0 FMFlg1=           0
         NFxFlg=           0 DoJE=F BraDBF=F KetDBF=F FulRan=T
         wScrn=  0.000000 ICntrl=       600 IOpCl=  0 I1Cent=           0 NGrid=           0
         NMat0=    1 NMatS0=  30381 NMatT0=    0 NMatD0=    1 NMtDS0=    0 NMtDT0=    0
 Symmetry not used in FoFCou.
 Two-electron integral symmetry not used.
 MDV=  2147483648 DFT=T DoStab=F Mixed=T DoRPA=T DoScal=F NonHer=T
 Making orbital integer symmetry assigments:
    24 initial guesses have been made.
 Convergence on wavefunction:    0.001000000000000
 Davidson Disk Diagonalization:  ConvIn= 1.00D-03 SkipCon=T Conv= 1.00D-03.
 Max sub-space:  2000 roots to seek:    24 dimension of matrix:        18998
 Iteration     1 Dimension    24 NMult     0 NNew     24
 CISAX will form    24 AO SS matrices at one time.
 NMat=    24 NSing=    12 JSym2X= 0.
 New state      1 was old state      2
 New state      2 was old state      1
 New state      3 was old state      4
 New state      4 was old state      3
 New state      5 was old state      6
 New state      6 was old state      8
 New state      7 was old state     12
 New state      8 was old state     14
 New state      9 was old state      7
 New state     11 was old state      5
 New state     12 was old state     22
 Excitation Energies [eV] at current iteration:
 Root      1 :     3.809007009144694
 Root      2 :     4.570149806653458
 Root      3 :     4.592102955259622
 Root      4 :     5.009863088903884
 Root      5 :     5.046347985162773
 Root      6 :     5.168260013419213
 Root      7 :     5.361285667030801
 Root      8 :     5.462921918259669
 Root      9 :     5.589008114186147
 Root     10 :     5.645298460280422
 Root     11 :     5.952746311506485
 Root     12 :     6.099058542063492
 Root     13 :     6.178145991938236
 Root     14 :     6.457376506545772
 Root     15 :     6.549318459099609
 Root     16 :     6.655754604532401
 Root     17 :     6.702983937734872
 Root     18 :     6.791407191180834
 Root     19 :     6.931588883999884
 Root     20 :     6.961544915550250
 Root     21 :     7.060707835425556
 Root     22 :     7.362140854730242
 Root     23 :     7.652500315331716
 Root     24 :     8.267094200039125
 Vector   6 SDiff=1.69D+00 TDiff=1.57D+00 assumed to be triplet.
 Vector  12 SDiff=1.76D+00 TDiff=1.47D+00 assumed to be triplet.
 Iteration     2 Dimension    36 NMult    24 NNew     12
 CISAX will form    12 AO SS matrices at one time.
 NMat=    12 NSing=     4 JSym2X= 0.
 Root      1 not converged, maximum delta is    0.083372232341389
 New state      2 was old state      3
 Root      2 not converged, maximum delta is    0.087665505994216
 New state      3 was old state      2
 Root      3 not converged, maximum delta is    0.079418164794376
 New state      4 was old state      5
 Root      4 not converged, maximum delta is    0.146360816217375
 New state      5 was old state      4
 Root      5 not converged, maximum delta is    0.086811864539157
 New state      6 was old state      9
 Root      6 not converged, maximum delta is    0.097853127630958
 Excitation Energies [eV] at current iteration:
 Root      1 :     3.412744574723870   Change is   -0.396262434420824
 Root      2 :     4.199657354839075   Change is   -0.392445600420548
 Root      3 :     4.249706863325151   Change is   -0.320442943328308
 Root      4 :     4.554647268498657   Change is   -0.491700716664116
 Root      5 :     4.687881446167771   Change is   -0.321981642736113
 Root      6 :     5.535959429566645   Change is   -0.053048684619502
 Iteration     3 Dimension    48 NMult    36 NNew     12
 CISAX will form    12 AO SS matrices at one time.
 NMat=    12 NSing=     6 JSym2X= 0.
 Root      1 not converged, maximum delta is    0.014879361569445
 Root      2 not converged, maximum delta is    0.039979137287898
 Root      3 not converged, maximum delta is    0.015634479871496
 Root      4 not converged, maximum delta is    0.099198203173600
 Root      5 not converged, maximum delta is    0.023951818620637
 Root      6 not converged, maximum delta is    0.094093851337896
 Excitation Energies [eV] at current iteration:
 Root      1 :     3.390331301617148   Change is   -0.022413273106722
 Root      2 :     4.148975937829727   Change is   -0.050681417009347
 Root      3 :     4.220637037064085   Change is   -0.029069826261066
 Root      4 :     4.450115072591397   Change is   -0.104532195907260
 Root      5 :     4.656196445946088   Change is   -0.031685000221684
 Root      6 :     5.228913951303614   Change is   -0.307045478263031
 Iteration     4 Dimension    60 NMult    48 NNew     12
 CISAX will form    12 AO SS matrices at one time.
 NMat=    12 NSing=     6 JSym2X= 0.
 Root      1 not converged, maximum delta is    0.003126339438191
 Root      2 not converged, maximum delta is    0.007562392744390
 Root      3 not converged, maximum delta is    0.007342469360382
 Root      4 not converged, maximum delta is    0.017577995885332
 Root      5 not converged, maximum delta is    0.010178814383945
 Root      6 not converged, maximum delta is    0.049283966342584
 Excitation Energies [eV] at current iteration:
 Root      1 :     3.389060680507869   Change is   -0.001270621109279
 Root      2 :     4.144647967713392   Change is   -0.004327970116335
 Root      3 :     4.215070422487110   Change is   -0.005566614576976
 Root      4 :     4.439931486601021   Change is   -0.010183585990376
 Root      5 :     4.649832017579929   Change is   -0.006364428366159
 Root      6 :     5.169178270688636   Change is   -0.059735680614977
 Iteration     5 Dimension    72 NMult    60 NNew     12
 CISAX will form    12 AO SS matrices at one time.
 NMat=    12 NSing=     6 JSym2X= 0.
 Root      1 not converged, maximum delta is    0.001003558052611
 Root      2 not converged, maximum delta is    0.004866249260592
 Root      3 not converged, maximum delta is    0.001935498579923
 Root      4 not converged, maximum delta is    0.007006933646320
 Root      5 not converged, maximum delta is    0.003652382264695
 Root      6 not converged, maximum delta is    0.030021658346491
 Excitation Energies [eV] at current iteration:
 Root      1 :     3.388959600197541   Change is   -0.000101080310328
 Root      2 :     4.143968224728241   Change is   -0.000679742985151
 Root      3 :     4.214220120499606   Change is   -0.000850301987503
 Root      4 :     4.438391661481226   Change is   -0.001539825119794
 Root      5 :     4.648602858720670   Change is   -0.001229158859258
 Root      6 :     5.154559172150819   Change is   -0.014619098537818
 Iteration     6 Dimension    84 NMult    72 NNew     12
 CISAX will form    12 AO SS matrices at one time.
 NMat=    12 NSing=     6 JSym2X= 0.
 Root      1 has converged.
 Root      2 not converged, maximum delta is    0.010005710573453
 Root      3 not converged, maximum delta is    0.001763360883550
 Root      4 not converged, maximum delta is    0.014005988159569
 Root      5 not converged, maximum delta is    0.004865213960427
 Root      6 not converged, maximum delta is    0.015027158589156
 Excitation Energies [eV] at current iteration:
 Root      1 :     3.388945261691315   Change is   -0.000014338506226
 Root      2 :     4.143276167349964   Change is   -0.000692057378277
 Root      3 :     4.214101253411203   Change is   -0.000118867088403
 Root      4 :     4.437258276566807   Change is   -0.001133384914420
 Root      5 :     4.648166229339586   Change is   -0.000436629381083
 Root      6 :     5.150720602811223   Change is   -0.003838569339595
 Iteration     7 Dimension    94 NMult    84 NNew     10
 CISAX will form    10 AO SS matrices at one time.
 NMat=    10 NSing=     6 JSym2X= 0.
 Root      1 has converged.
 Root      2 not converged, maximum delta is    0.005250191463646
 Root      3 not converged, maximum delta is    0.001076781122454
 Root      4 not converged, maximum delta is    0.030193398642021
 Root      5 not converged, maximum delta is    0.004996064767597
 Root      6 not converged, maximum delta is    0.291283374931578
 Excitation Energies [eV] at current iteration:
 Root      1 :     3.388944410235463   Change is   -0.000000851455852
 Root      2 :     4.142968491767466   Change is   -0.000307675582499
 Root      3 :     4.214070004543025   Change is   -0.000031248868179
 Root      4 :     4.435566817309839   Change is   -0.001691459256968
 Root      5 :     4.647936931109353   Change is   -0.000229298230234
 Root      6 :     5.110432352935794   Change is   -0.040288249875430
 Iteration     8 Dimension   104 NMult    94 NNew     10
 CISAX will form    10 AO SS matrices at one time.
 NMat=    10 NSing=     6 JSym2X= 0.
 Root      1 has converged.
 Root      2 not converged, maximum delta is    0.001021705453226
 Root      3 has converged.
 Root      4 not converged, maximum delta is    0.015804298049430
 Root      5 not converged, maximum delta is    0.002261979973466
 Root      6 not converged, maximum delta is    0.103073636758715
 Excitation Energies [eV] at current iteration:
 Root      1 :     3.388944071545186   Change is   -0.000000338690277
 Root      2 :     4.142924747204218   Change is   -0.000043744563247
 Root      3 :     4.214065666559818   Change is   -0.000004337983207
 Root      4 :     4.434760067866758   Change is   -0.000806749443080
 Root      5 :     4.647859702096197   Change is   -0.000077229013156
 Root      6 :     5.005716065403521   Change is   -0.104716287532272
 Iteration     9 Dimension   112 NMult   104 NNew      8
 CISAX will form     8 AO SS matrices at one time.
 NMat=     8 NSing=     4 JSym2X= 0.
 Root      1 has converged.
 Root      2 has converged.
 Root      3 has converged.
 Root      4 not converged, maximum delta is    0.003690268302627
 Root      5 has converged.
 Root      6 not converged, maximum delta is    0.017833731519716
 Excitation Energies [eV] at current iteration:
 Root      1 :     3.388943887352940   Change is   -0.000000184192247
 Root      2 :     4.142920059507747   Change is   -0.000004687696472
 Root      3 :     4.214065188584806   Change is   -0.000000477975011
 Root      4 :     4.434580141679676   Change is   -0.000179926187084
 Root      5 :     4.647842971345854   Change is   -0.000016730750342
 Root      6 :     4.984362574387157   Change is   -0.021353491016364
 Iteration    10 Dimension   116 NMult   112 NNew      4
 CISAX will form     4 AO SS matrices at one time.
 NMat=     4 NSing=     2 JSym2X= 0.
 Root      1 has converged.
 Root      2 has converged.
 Root      3 has converged.
 Root      4 not converged, maximum delta is    0.001126683507402
 Root      5 has converged.
 Root      6 not converged, maximum delta is    0.005550889274055
 Excitation Energies [eV] at current iteration:
 Root      1 :     3.388943833162201   Change is   -0.000000054190739
 Root      2 :     4.142919734122799   Change is   -0.000000325384948
 Root      3 :     4.214065152677825   Change is   -0.000000035906982
 Root      4 :     4.434553683510980   Change is   -0.000026458168696
 Root      5 :     4.647840783840053   Change is   -0.000002187505802
 Root      6 :     4.981341889547481   Change is   -0.003020684839676
 Iteration    11 Dimension   120 NMult   116 NNew      4
 CISAX will form     4 AO SS matrices at one time.
 NMat=     4 NSing=     2 JSym2X= 0.
 Root      1 has converged.
 Root      2 has converged.
 Root      3 has converged.
 Root      4 has converged.
 Root      5 has converged.
 Root      6 not converged, maximum delta is    0.001590501039980
 Excitation Energies [eV] at current iteration:
 Root      1 :     3.388943813824533   Change is   -0.000000019337668
 Root      2 :     4.142919723705319   Change is   -0.000000010417480
 Root      3 :     4.214065149982050   Change is   -0.000000002695775
 Root      4 :     4.434551341320047   Change is   -0.000002342190932
 Root      5 :     4.647840559857821   Change is   -0.000000223982232
 Root      6 :     4.980971406265962   Change is   -0.000370483281520
 Iteration    12 Dimension   122 NMult   120 NNew      2
 CISAX will form     2 AO SS matrices at one time.
 NMat=     2 NSing=     2 JSym2X= 0.
 Root      1 has converged.
 Root      2 has converged.
 Root      3 has converged.
 Root      4 has converged.
 Root      5 has converged.
 Root      6 has converged.
 Excitation Energies [eV] at current iteration:
 Root      1 :     3.388943813824558   Change is    0.000000000000024
 Root      2 :     4.142919723705359   Change is    0.000000000000040
 Root      3 :     4.214065148918557   Change is   -0.000000001063492
 Root      4 :     4.434551341320066   Change is    0.000000000000019
 Root      5 :     4.647840554569351   Change is   -0.000000005288470
 Root      6 :     4.980946367273090   Change is   -0.000025038992872
 Convergence achieved on expansion vectors.
 ***********************************************************************
 Excited states from <AA,BB:AA,BB> singles matrix:
 ***********************************************************************
 
 1PDM for each excited state written to RWF  633
 Ground to excited state transition densities written to RWF  633
 Ground to excited state transition electric dipole moments (Au):
       state          X           Y           Z        Dip. S.      Osc.
         1        -0.0000      0.0000      0.0000      0.0000      0.0000
         2         0.0000      0.0000     -0.0000      0.0000      0.0000
         3         0.5450      0.3455     -0.4292      0.6007      0.0620
         4         0.0000      0.0000     -0.0000      0.0000      0.0000
         5        -0.3145     -0.2102      0.5021      0.3952      0.0450
         6        -0.0388     -0.1402     -0.0021      0.0212      0.0026
 Ground to excited state transition velocity dipole moments (Au):
       state          X           Y           Z        Dip. S.      Osc.
         1         0.0000      0.0000     -0.0000      0.0000      0.0000
         2        -0.0000     -0.0000      0.0000      0.0000      0.0000
         3        -0.0726     -0.0519      0.0458      0.0101      0.0433
         4        -0.0000     -0.0000      0.0000      0.0000      0.0000
         5         0.0755      0.0217     -0.0478      0.0085      0.0330
         6        -0.0036      0.0292     -0.0105      0.0010      0.0035
 Ground to excited state transition magnetic dipole moments (Au):
       state          X           Y           Z
         1        -0.0000      0.0000     -0.0000
         2         0.0000     -0.0000      0.0000
         3         1.1257     -1.7717      0.4374
         4         0.0000     -0.0000     -0.0000
         5         0.2576      1.7168     -0.2091
         6         0.4236      0.6060      0.3555
 Ground to excited state transition velocity quadrupole moments (Au):
       state          XX          YY          ZZ          XY          XZ          YZ
         1         0.0000     -0.0000     -0.0000      0.0000     -0.0000      0.0000
         2        -0.0000     -0.0000      0.0000     -0.0000      0.0000     -0.0000
         3        -2.2287     -0.2766      0.7884     -0.9765      0.0456     -0.3255
         4        -0.0000     -0.0000      0.0000     -0.0000     -0.0000     -0.0000
         5         2.3018      0.1520     -0.8563      0.7098      0.1268      0.1428
         6        -0.1084      0.0706     -0.0387      0.3604     -0.2008      0.0967
 <0|del|b> * <b|rxdel|0> + <0|del|b> * <b|delr+rdel|0>
 Rotatory Strengths (R) in cgs (10**-40 erg-esu-cm/Gauss)
       state          XX          YY          ZZ    R(velocity)    E-M Angle
         1         0.0000      0.0000     -0.0000      0.0000       90.00
         2         0.0000      0.0000     -0.0000      0.0000       90.00
         3       159.0512     15.4104    -35.7697     46.2306       81.88
         4         0.0000      0.0000      0.0000      0.0000       90.00
         5        21.7650    153.6015    100.6760     92.0141       65.51
         6        30.9506     -3.4910     20.5709     16.0102       60.94
 1/2[<0|r|b>*<b|rxdel|0> + (<0|rxdel|b>*<b|r|0>)*]
 Rotatory Strengths (R) in cgs (10**-40 erg-esu-cm/Gauss)
       state          XX          YY          ZZ     R(length)
         1        -0.0000     -0.0000      0.0000      0.0000
         2        -0.0000      0.0000      0.0000      0.0000
         3      -433.8788    432.9151    132.7369     43.9244
         4        -0.0000      0.0000     -0.0000      0.0000
         5        57.3016    255.1605     74.2450    128.9024
         6        11.6307     60.0713      0.5231     24.0750
  1/2[<0|del|b>*<b|r|0> + (<0|r|b>*<b|del|0>)*] (Au)
       state          X           Y           Z        Dip. S.   Osc.(frdel)
         1        -0.0000      0.0000     -0.0000      0.0000      0.0000
         2        -0.0000     -0.0000     -0.0000      0.0000      0.0000
         3        -0.0396     -0.0179     -0.0197      0.0772      0.0514
         4        -0.0000     -0.0000     -0.0000      0.0000      0.0000
         5        -0.0238     -0.0046     -0.0240      0.0523      0.0349
         6         0.0001     -0.0041      0.0000      0.0039      0.0026

 Excitation energies and oscillator strengths:
 
 Excited state symmetry could not be determined.
 Excited State   1:      Triplet-?Sym    3.3889 eV  365.85 nm  f=0.0000  <S**2>=2.000
      84 -> 87        -0.10206
      85 -> 86         0.65804
 This state for optimization and/or second-order correction.
 Total Energy, E(TD-HF/TD-DFT) =  -1363.41797660    
 Copying the excited state density for this state as the 1-particle RhoCI density.
 
 Excited state symmetry could not be determined.
 Excited State   2:      Triplet-?Sym    4.1429 eV  299.27 nm  f=0.0000  <S**2>=2.000
      81 -> 86        -0.13782
      82 -> 86         0.19051
      83 -> 86         0.24340
      83 -> 88         0.12757
      84 -> 86         0.50578
      85 -> 87        -0.11470
      85 -> 88         0.17581
 
 Excited state symmetry could not be determined.
 Excited State   3:      Singlet-?Sym    4.2141 eV  294.22 nm  f=0.0620  <S**2>=0.000
      83 -> 86         0.13867
      85 -> 86         0.62771
      85 -> 87        -0.10098
      85 -> 88         0.15593
 
 Excited state symmetry could not be determined.
 Excited State   4:      Triplet-?Sym    4.4346 eV  279.59 nm  f=0.0000  <S**2>=2.000
      81 -> 86         0.30648
      81 -> 90         0.10422
      82 -> 86        -0.13689
      83 -> 86         0.27965
      83 -> 88         0.21374
      84 -> 86        -0.21243
      85 -> 88         0.33063
      85 -> 90         0.10556
 
 Excited state symmetry could not be determined.
 Excited State   5:      Singlet-?Sym    4.6478 eV  266.76 nm  f=0.0450  <S**2>=0.000
      81 -> 86        -0.27264
      82 -> 86         0.25420
      84 -> 86         0.55202
 
 Excited state symmetry could not be determined.
 Excited State   6:      Singlet-?Sym    4.9809 eV  248.92 nm  f=0.0026  <S**2>=0.000
      81 -> 86         0.13614
      81 -> 87        -0.11208
      81 -> 88        -0.24162
      81 -> 90         0.19128
      82 -> 87        -0.13812
      82 -> 88        -0.31155
      82 -> 90         0.21184
      83 -> 88         0.25298
      83 -> 90        -0.12564
      84 -> 88        -0.10823
      85 -> 88         0.21321
 SavETr:  write IOETrn=   770 NScale= 10 NData=  16 NLR=1 NState=    6 LETran=     118.
 Leave Link  914 at Mon Aug 11 19:51:43 2025, MaxMem=  2147483648 cpu:            1760.9 elap:             445.5
 (Enter /opt/apps/pkg/applications/licensed/gaussian/v16/x86_64AVX2/g16/l601.exe)
 Copying SCF densities to generalized density rwf, IOpCl= 0 IROHF=0.

 **********************************************************************

            Population analysis using the SCF density.

[...]
              19         20         21         22         23         24
     1  C   -0.000012  -0.000003   0.000038  -0.001079   0.374166   0.373139
     2  C    0.000554   0.000108  -0.001336   0.000068  -0.035849  -0.041796
     3  C   -0.000062  -0.001201   0.000019  -0.000029   0.003501  -0.002531
     4  C    0.000181   0.000044   0.000004   0.000000  -0.000074  -0.000018
     5  C   -0.000011  -0.000007   0.000000  -0.000000   0.000000  -0.000000
     6  C    0.000010   0.000004   0.000000  -0.000000  -0.000000   0.000000
     7  O    0.000000   0.000000   0.000000  -0.000000   0.000000  -0.000000
     8  N    0.000102   0.000038   0.000000  -0.000000   0.000000  -0.000000
     9  S   -0.000006   0.021457   0.000211   0.000021  -0.000000   0.000000
    10  C   -0.054022  -0.003342   0.000939  -0.000070   0.000000  -0.000000
    11  N    0.001479   0.000039  -0.000003   0.000000  -0.000000   0.000000
    12  C   -0.000060   0.000000   0.000000  -0.000000   0.000000  -0.000000
    13  C    0.000005   0.000001   0.000000  -0.000000  -0.000000   0.000000
    14  C    0.000000   0.000000   0.000000  -0.000000  -0.000000   0.000000
    15  C   -0.000000  -0.000000  -0.000000   0.000000  -0.000000   0.000000
    16  C   -0.000000   0.000000   0.000000  -0.000000   0.000000  -0.000000
    17  C    0.000001  -0.000000  -0.000000   0.000000  -0.000000   0.000000
    18  N    0.180643  -0.074743  -0.077414   0.003030  -0.000000  -0.000000
    19  C    4.225305   0.494434   0.247344  -0.064023  -0.000000  -0.000000
    20  O    0.494434   8.109288  -0.053486  -0.001088   0.000000  -0.000000
    21  O    0.247344  -0.053486   8.296831   0.221558  -0.000004  -0.000000
    22  C   -0.064023  -0.001088   0.221558   5.129247   0.000043   0.000011
    23  H   -0.000000   0.000000  -0.000004   0.000043   0.517476  -0.025592
    24  H   -0.000000  -0.000000  -0.000000   0.000011  -0.025592   0.519600
    25  H   -0.000001  -0.000007   0.000021  -0.000042  -0.027070  -0.027052
    26  H   -0.000003   0.000000   0.000005  -0.000001  -0.001786  -0.002628
    27  H    0.000985  -0.000465   0.006787   0.000240  -0.001762   0.003351
    28  H    0.001335   0.006008  -0.000153   0.000033  -0.000045  -0.000140
    29  H    0.000005   0.000005  -0.000000  -0.000000   0.000016   0.003972
    30  H   -0.000003  -0.000000  -0.000000  -0.000000   0.000000   0.000002
    31  H    0.000127  -0.000125  -0.000027   0.000000   0.000001   0.000003
    32  H   -0.000001  -0.000028   0.000000  -0.000000   0.000000   0.000000
    33  H   -0.000000  -0.000000   0.000000   0.000000  -0.000000  -0.000000
    34  H    0.000000   0.000000   0.000000   0.000000   0.000000   0.000000
    35  H    0.000000   0.000000   0.000000  -0.000000  -0.000000  -0.000000
    36  H    0.000000   0.000000  -0.000000   0.000000  -0.000000   0.000000
    37  H    0.000000  -0.000000  -0.000000   0.000000   0.000000  -0.000000
    38  H   -0.011143   0.001278   0.002668   0.000043  -0.000000   0.000000
    39  H    0.004090   0.000203  -0.021512   0.365651   0.000000  -0.000000
    40  H   -0.003514   0.002084  -0.029335   0.346142  -0.000026  -0.000017
    41  H   -0.005120   0.006618  -0.028569   0.348883  -0.000000  -0.000000
              25         26         27         28         29         30
     1  C    0.367207  -0.040616  -0.041228  -0.000593  -0.001743  -0.000025
     2  C   -0.043793   0.380268   0.364854  -0.041174  -0.045255  -0.001175
     3  C   -0.001891  -0.045512  -0.043535   0.366226   0.378599  -0.042174
     4  C   -0.000007  -0.001869  -0.000880  -0.043846  -0.044464   0.381765
     5  C    0.000000   0.000006  -0.000042  -0.002853  -0.000808  -0.041262
     6  C   -0.000000  -0.000000   0.000001  -0.000019   0.000008   0.001419
     7  O   -0.000000  -0.000000   0.000000  -0.000000  -0.000000   0.000253
     8  N    0.000000   0.000000  -0.000001  -0.000004  -0.000001   0.000024
     9  S   -0.000001  -0.000001   0.000003   0.002287   0.000037   0.000407
    10  C   -0.000000  -0.000001   0.000018  -0.000016  -0.000000   0.000032
    11  N   -0.000000  -0.000000  -0.000001   0.000001  -0.000000   0.000000
    12  C    0.000000  -0.000000   0.000000  -0.000000   0.000000  -0.000003
    13  C   -0.000000  -0.000000   0.000000   0.000001   0.000000   0.000005
    14  C    0.000000   0.000000  -0.000000   0.000000  -0.000000  -0.000000
    15  C   -0.000000  -0.000000   0.000000  -0.000000   0.000000  -0.000000
    16  C   -0.000000   0.000000   0.000000  -0.000000   0.000000   0.000000
    17  C    0.000000   0.000000  -0.000000   0.000000  -0.000000   0.000000
    18  N    0.000000   0.000000   0.000450  -0.000193  -0.000000   0.000004
    19  C   -0.000001  -0.000003   0.000985   0.001335   0.000005  -0.000003
    20  O   -0.000007   0.000000  -0.000465   0.006008   0.000005  -0.000000
    21  O    0.000021   0.000005   0.006787  -0.000153  -0.000000  -0.000000
    22  C   -0.000042  -0.000001   0.000240   0.000033  -0.000000  -0.000000
    23  H   -0.027070  -0.001786  -0.001762  -0.000045   0.000016   0.000000
    24  H   -0.027052  -0.002628   0.003351  -0.000140   0.003972   0.000002
    25  H    0.531887   0.003472  -0.002615   0.002882  -0.000193   0.000002
    26  H    0.003472   0.530939  -0.028112   0.003537  -0.001996   0.003702
    27  H   -0.002615  -0.028112   0.547430  -0.004848   0.003569  -0.000125
    28  H    0.002882   0.003537  -0.004848   0.527679  -0.026933   0.003333
    29  H   -0.000193  -0.001996   0.003569  -0.026933   0.536946  -0.002668
    30  H    0.000002   0.003702  -0.000125   0.003333  -0.002668   0.510597
    31  H    0.000001  -0.000226   0.003222  -0.003349   0.003753  -0.028412
    32  H   -0.000000   0.000006   0.000003   0.003766   0.000059   0.003071
    33  H    0.000000   0.000001   0.000000  -0.000074   0.001237  -0.004293
    34  H    0.000000   0.000000  -0.000000  -0.000000   0.000000  -0.000000
    35  H    0.000000   0.000000  -0.000000  -0.000000  -0.000000  -0.000000
    36  H   -0.000000   0.000000  -0.000000   0.000000  -0.000000   0.000000
    37  H    0.000000   0.000000   0.000000  -0.000000   0.000000   0.000000
    38  H   -0.000000  -0.000000   0.000129  -0.000003   0.000000   0.000000
    39  H   -0.000008   0.000000  -0.000014   0.000000  -0.000000   0.000000
    40  H    0.004912   0.000002  -0.000748   0.000346   0.000001   0.000000
    41  H    0.000000   0.000000   0.000057  -0.000012  -0.000000   0.000000
              31         32         33         34         35         36
     1  C   -0.000004  -0.000004   0.000001  -0.000000   0.000000  -0.000000
     2  C   -0.000776   0.000106  -0.000039  -0.000000   0.000000   0.000000
     3  C   -0.045219  -0.004456   0.000093   0.000000  -0.000000   0.000000
     4  C    0.372737  -0.037445  -0.030214   0.000000   0.000000  -0.000000
     5  C   -0.048180   0.358609   0.356011   0.000124  -0.000000   0.000000
     6  C   -0.004386  -0.028248  -0.035212   0.002303  -0.000001   0.000000
     7  O   -0.000163   0.001390   0.002926   0.010034  -0.000001   0.000000
     8  N    0.005363   0.001017   0.003467  -0.007443  -0.000016   0.000000
     9  S   -0.007798  -0.003679   0.000743  -0.000096   0.000002  -0.000000
    10  C   -0.001401   0.000049  -0.000008  -0.000002   0.000000   0.000001
    11  N   -0.000478   0.000000   0.000000  -0.000008  -0.000000  -0.000018
    12  C    0.000020  -0.000002   0.000001   0.003479  -0.000197   0.004087
    13  C   -0.000206  -0.000006  -0.000029  -0.039326   0.003985  -0.000257
    14  C   -0.000001  -0.000006  -0.000003   0.387645  -0.035816   0.003570
    15  C   -0.000000  -0.000000  -0.000000  -0.031671   0.393954  -0.037402
    16  C    0.000000   0.000000   0.000000   0.003229  -0.037401   0.394597
    17  C    0.000001   0.000000  -0.000000  -0.000196   0.003508  -0.036289
    18  N    0.004395   0.000004  -0.000000  -0.000000   0.000000  -0.000000
    19  C    0.000127  -0.000001  -0.000000   0.000000   0.000000   0.000000
    20  O   -0.000125  -0.000028  -0.000000   0.000000   0.000000   0.000000
    21  O   -0.000027   0.000000   0.000000   0.000000   0.000000  -0.000000
    22  C    0.000000  -0.000000   0.000000   0.000000  -0.000000   0.000000
    23  H    0.000001   0.000000  -0.000000   0.000000  -0.000000  -0.000000
    24  H    0.000003   0.000000  -0.000000   0.000000  -0.000000   0.000000
    25  H    0.000001  -0.000000   0.000000   0.000000   0.000000  -0.000000
    26  H   -0.000226   0.000006   0.000001   0.000000   0.000000   0.000000
    27  H    0.003222   0.000003   0.000000  -0.000000  -0.000000  -0.000000
    28  H   -0.003349   0.003766  -0.000074  -0.000000  -0.000000   0.000000
    29  H    0.003753   0.000059   0.001237   0.000000  -0.000000  -0.000000
    30  H   -0.028412   0.003071  -0.004293  -0.000000  -0.000000   0.000000
    31  H    0.543459   0.000328   0.003125   0.000000   0.000000  -0.000000
    32  H    0.000328   0.491245  -0.021371  -0.000008   0.000000  -0.000000
    33  H    0.003125  -0.021371   0.480856   0.000002   0.000000  -0.000000
    34  H    0.000000  -0.000008   0.000002   0.434457  -0.003289  -0.000034
    35  H    0.000000   0.000000   0.000000  -0.003289   0.461245  -0.003174
    36  H   -0.000000  -0.000000  -0.000000  -0.000034  -0.003174   0.464285
    37  H   -0.000000   0.000000   0.000000   0.000001  -0.000037  -0.003462
    38  H   -0.000102   0.000000  -0.000000  -0.000000   0.000000  -0.000000
    39  H   -0.000000   0.000000   0.000000  -0.000000  -0.000000  -0.000000
    40  H    0.000001  -0.000000  -0.000000  -0.000000   0.000000  -0.000000
    41  H   -0.000000   0.000000   0.000000  -0.000000  -0.000000   0.000000
              37         38         39         40         41
     1  C   -0.000000  -0.000000   0.000012   0.001581   0.000012
     2  C   -0.000000  -0.000004   0.000001   0.000425  -0.000010
     3  C   -0.000000  -0.000001   0.000000  -0.000085   0.000002
     4  C   -0.000000   0.000006  -0.000000  -0.000001   0.000000
     5  C   -0.000000  -0.000000  -0.000000  -0.000000   0.000000
     6  C    0.000001  -0.000000  -0.000000   0.000000  -0.000000
     7  O    0.000000   0.000000  -0.000000  -0.000000  -0.000000
     8  N   -0.000020  -0.000028  -0.000000  -0.000000  -0.000000
     9  S    0.000052   0.002982  -0.000000  -0.000005  -0.000004
    10  C   -0.000083  -0.021969   0.000001   0.000002   0.000006
    11  N    0.000861   0.005346  -0.000000   0.000000   0.000000
    12  C   -0.039717   0.000285   0.000000   0.000000  -0.000000
    13  C    0.005583  -0.000000  -0.000000   0.000000   0.000000
    14  C   -0.000524  -0.000000  -0.000000   0.000000  -0.000000
    15  C    0.003563   0.000000   0.000000   0.000000   0.000000
    16  C   -0.033517   0.000000   0.000000   0.000000  -0.000000
    17  C    0.382365  -0.000017   0.000000  -0.000000   0.000000
    18  N   -0.000014   0.305252   0.000003  -0.000058   0.000064
    19  C    0.000000  -0.011143   0.004090  -0.003514  -0.005120
    20  O   -0.000000   0.001278   0.000203   0.002084   0.006618
    21  O   -0.000000   0.002668  -0.021512  -0.029335  -0.028569
    22  C    0.000000   0.000043   0.365651   0.346142   0.348883
    23  H    0.000000  -0.000000   0.000000  -0.000026  -0.000000
    24  H   -0.000000   0.000000  -0.000000  -0.000017  -0.000000
    25  H    0.000000  -0.000000  -0.000008   0.004912   0.000000
    26  H    0.000000  -0.000000   0.000000   0.000002   0.000000
    27  H    0.000000   0.000129  -0.000014  -0.000748   0.000057
    28  H   -0.000000  -0.000003   0.000000   0.000346  -0.000012
    29  H    0.000000   0.000000  -0.000000   0.000001  -0.000000
    30  H    0.000000   0.000000   0.000000   0.000000   0.000000
    31  H   -0.000000  -0.000102  -0.000000   0.000001  -0.000000
    32  H    0.000000   0.000000   0.000000  -0.000000   0.000000
    33  H    0.000000  -0.000000   0.000000  -0.000000   0.000000
    34  H    0.000001  -0.000000  -0.000000  -0.000000  -0.000000
    35  H   -0.000037   0.000000  -0.000000   0.000000  -0.000000
    36  H   -0.003462  -0.000000  -0.000000  -0.000000   0.000000
    37  H    0.462344   0.000010  -0.000000   0.000000  -0.000000
    38  H    0.000010   0.334799  -0.000023   0.000007   0.000007
    39  H   -0.000000  -0.000023   0.470978  -0.027248  -0.023572
    40  H    0.000000   0.000007  -0.027248   0.504078  -0.033961
    41  H   -0.000000   0.000007  -0.023572  -0.033961   0.503848
 Mulliken charges:
               1
     1  C   -0.576849
     2  C   -0.413316
     3  C   -0.386051
     4  C   -0.382800
     5  C   -0.489547
     6  C    0.660863
     7  O   -0.479589
     8  N   -0.845514
     9  S    0.454870
    10  C    0.381715
    11  N   -0.616981
    12  C    0.191831
    13  C    0.283758
    14  C   -0.170912
    15  C   -0.213475
    16  C   -0.212404
    17  C   -0.170967
    18  N   -0.833463
    19  C    0.981381
    20  O   -0.507115
    21  O   -0.564586
    22  C   -0.348639
    23  H    0.197005
    24  H    0.199696
    25  H    0.192295
    26  H    0.200812
    27  H    0.193276
    28  H    0.206824
    29  H    0.195853
    30  H    0.215524
    31  H    0.204316
    32  H    0.235599
    33  H    0.242780
    34  H    0.240799
    35  H    0.217237
    36  H    0.214096
    37  H    0.222595
    38  H    0.380479
    39  H    0.231437
    40  H    0.235416
    41  H    0.231752
 Sum of Mulliken charges =  -0.00000
 Mulliken charges with hydrogens summed into heavy atoms:
               1
     1  C    0.012146
     2  C   -0.019229
     3  C    0.016626
     4  C    0.037040
     5  C   -0.011168
     6  C    0.660863
     7  O   -0.479589
     8  N   -0.845514
     9  S    0.454870
    10  C    0.381715
    11  N   -0.616981
    12  C    0.191831
    13  C    0.283758
    14  C    0.069887
    15  C    0.003763
    16  C    0.001692
    17  C    0.051629
    18  N   -0.452984
    19  C    0.981381
    20  O   -0.507115
    21  O   -0.564586
    22  C    0.349966
 Electronic spatial extent (au):  <R**2>=          57497.3364
 Charge=              0.0000 electrons
 Dipole moment (field-independent basis, Debye):
    X=              2.6277    Y=              3.4664    Z=             -1.4531  Tot=              4.5861
 Quadrupole moment (field-independent basis, Debye-Ang):
   XX=            -96.2880   YY=           -116.8235   ZZ=           -134.6279
   XY=             40.8049   XZ=            -10.6054   YZ=              3.9943
 Traceless Quadrupole moment (field-independent basis, Debye-Ang):
   XX=             19.6251   YY=             -0.9103   ZZ=            -18.7147
   XY=             40.8049   XZ=            -10.6054   YZ=              3.9943
 Octapole moment (field-independent basis, Debye-Ang**2):
  XXX=          -2819.5437  YYY=           -703.4362  ZZZ=          -1264.2583  XYY=           -883.1016
  XXY=            216.9006  XXZ=           -549.1614  XZZ=          -1143.0357  YZZ=           -254.0533
  YYZ=           -414.5327  XYZ=             57.8031
 Hexadecapole moment (field-independent basis, Debye-Ang**3):
 XXXX=         -50293.4540 YYYY=          -5176.5965 ZZZZ=         -13019.0877 XXXY=          -1659.2692
 XXXZ=         -11211.5568 YYYX=          -6298.9067 YYYZ=          -1581.5922 ZZZX=         -10100.1163
 ZZZY=          -1620.4963 XXYY=          -7704.8484 XXZZ=         -12470.9911 YYZZ=          -3161.2982
 XXYZ=            100.9030 YYXZ=          -3038.5501 ZZXY=          -2284.7568
 N-N= 2.042841264250D+03 E-N=-7.274717851414D+03  KE= 1.351644350776D+03
 Leave Link  601 at Mon Aug 11 19:51:43 2025, MaxMem=  2147483648 cpu:               0.2 elap:               0.1
 (Enter /opt/apps/pkg/applications/licensed/gaussian/v16/x86_64AVX2/g16/l9999.exe)
 Electronic transition elements 
                 1             2             3             4             5 
      1  -0.136342D+04 -0.136339D+04 -0.136339D+04 -0.136338D+04 -0.136337D+04
      2   0.000000D+00  0.000000D+00  0.545049D+00  0.000000D+00 -0.314542D+00
      3   0.000000D+00  0.000000D+00  0.345526D+00  0.000000D+00 -0.210175D+00
      4   0.000000D+00  0.000000D+00 -0.429169D+00  0.000000D+00  0.502075D+00
      5   0.000000D+00  0.000000D+00 -0.725628D-01  0.000000D+00  0.755109D-01
      6   0.000000D+00  0.000000D+00 -0.519291D-01  0.000000D+00  0.216784D-01
      7   0.000000D+00  0.000000D+00  0.458413D-01  0.000000D+00 -0.478428D-01
      8   0.000000D+00  0.000000D+00  0.112567D+01  0.000000D+00  0.257612D+00
      9   0.000000D+00  0.000000D+00 -0.177174D+01  0.000000D+00  0.171677D+01
     10   0.000000D+00  0.000000D+00  0.437364D+00  0.000000D+00 -0.209111D+00
     11   0.000000D+00  0.000000D+00 -0.222866D+01  0.000000D+00  0.230182D+01
     12   0.000000D+00  0.000000D+00 -0.276583D+00  0.000000D+00  0.151983D+00
     13   0.000000D+00  0.000000D+00  0.788426D+00  0.000000D+00 -0.856258D+00
     14   0.000000D+00  0.000000D+00 -0.976463D+00  0.000000D+00  0.709782D+00
     15   0.000000D+00  0.000000D+00  0.456404D-01  0.000000D+00  0.126824D+00
     16   0.000000D+00  0.000000D+00 -0.325507D+00  0.000000D+00  0.142830D+00
                 6 
      1  -0.136336D+04
      2  -0.388230D-01
      3  -0.140180D+00
      4  -0.208098D-02
      5  -0.357234D-02
      6   0.291635D-01
      7  -0.104835D-01
      8   0.423638D+00
      9   0.605981D+00
     10   0.355478D+00
     11  -0.108441D+00
     12   0.706454D-01
     13  -0.386802D-01
     14   0.360409D+00
     15  -0.200776D+00
     16   0.967318D-01
 1\1\GINC-NODE048\SP\RM062X TD-FC\3-21G*\C15H19N3O3S1\SGOOMAR1\11-Aug-2
 025\0\\#p td=(nstates=3,50-50) m062x 3-21g* guess=read geom=check inte
 gral=ultrafine nosymm\\title\\0,1\C,0,9.0063185165,4.2371910624,-1.410
 642014\C,0,8.135445984,3.8599856523,-0.1974384432\C,0,8.1367977565,2.3
 394578852,0.0586197703\C,0,7.1319161197,1.9236787773,1.1486351679\C,0,
 7.1660220248,0.3916036087,1.4162214543\C,0,6.6635964148,0.0526443502,2
 .8082760754\O,0,5.5833058494,-0.4827910316,3.0355669196\N,0,7.52689762
 ,0.4051698503,3.8719810441\S,0,9.1271844014,0.9780358044,3.5920057642\
 C,0,8.7872804563,2.5908272032,4.3112869112\N,0,8.0015692674,2.75282502
 93,5.3014892495\C,0,7.3181392709,1.6812904429,5.9031725769\C,0,7.04649
 15095,0.4848816332,5.2165440747\C,0,6.2927750428,-0.5153386591,5.82182
 25062\C,0,5.8492782546,-0.3477228717,7.1273599411\C,0,6.1417750628,0.8
 222395416,7.8272890474\C,0,6.8623349139,1.8337236525,7.2130382807\N,0,
 9.3963384843,3.7032712532,3.740999315\C,0,10.3967714533,3.6243755955,2
 .8131919312\O,0,10.9522220354,2.5848517153,2.4640592292\O,0,10.6846927
 509,4.8620691556,2.3278628835\C,0,11.8036661181,4.9144120028,1.3740557
 336\H,0,9.0139720183,5.3166785217,-1.5710317783\H,0,8.6287005635,3.758
 9408692,-2.3164863454\H,0,10.0364706704,3.9053756002,-1.2607605258\H,0
 ,7.1103287039,4.2007348479,-0.3662828267\H,0,8.510771149,4.3748478383,
 0.6919277577\H,0,9.1390003422,2.0356792664,0.3761179824\H,0,7.90440172
 26,1.8141425639,-0.8726445208\H,0,6.1196758942,2.2110376088,0.85746260
 13\H,0,7.3695502137,2.463229945,2.0646412387\H,0,8.1807882849,0.022640
 9268,1.2749782687\H,0,6.5079232514,-0.123275297,0.7196504969\H,0,6.037
 2213752,-1.3933571818,5.2582618458\H,0,5.2683140911,-1.1270970899,7.59
 54398293\H,0,5.7944433786,0.9477217596,8.8410094728\H,0,7.0789954686,2
 .7610027239,7.7178287726\H,0,9.0853208459,4.6110760117,4.0647662707\H,
 0,12.0121527652,5.9709830561,1.2519813588\H,0,11.5069171692,4.46492818
 71,0.4303492629\H,0,12.6640827848,4.3821181886,1.7720934195\\Version=E
 S64L-G16RevA.03\HF=-1363.542518\RMSD=3.726e-09\PG=C01 [X(C15H19N3O3S1)
 ]\\@


 If fifty million people say a stupid thing,
 it is still a stupid thing.
                   -- Anatole France
 Job cpu time:       0 days  0 hours 32 minutes 23.8 seconds.
 Elapsed time:       0 days  0 hours  8 minutes 12.1 seconds.
 File lengths (MBytes):  RWF=    559 Int=      0 D2E=      0 Chk=     22 Scr=      1
 Normal termination of Gaussian 16 at Mon Aug 11 19:51:43 2025.
