title                                                                   
SP        RZINDO CIS                                                  STO-3G              
Number of atoms                            I               13
Info1-9                                    I   N=           9
          21          21           0           0           0         111
           1         108         590
Full Title                                 C   N=           1
title       
Route                                      C   N=           5
#n ZINDO sp IOP(5/33=2) PUNCH=(MO,Coord) pop=full nosymm    
Charge                                     I                0
Multiplicity                               I                1
Number of electrons                        I               48
Number of alpha electrons                  I               24
Number of beta electrons                   I               24
Number of basis functions                  I               40
Number of independent functions            I               40
Number of point charges in /Mol/           I                0
Number of translation vectors              I                0
Atomic numbers                             I   N=          13
           8           7           6           6           7           7
           7           7           7           1           1           1
           1
Nuclear charges                            R   N=          13
  6.00000000E+00  5.00000000E+00  4.00000000E+00  4.00000000E+00  5.00000000E+00
  5.00000000E+00  5.00000000E+00  5.00000000E+00  5.00000000E+00  1.00000000E+00
  1.00000000E+00  1.00000000E+00  1.00000000E+00
Current cartesian coordinates              R   N=          39
  5.77114800E+00  2.27526805E+00 -4.88154052E-01  4.33034521E+00  4.70522908E-01
  7.16962092E-01  5.61566133E+00 -1.58629280E+00  1.25666787E+00  4.22000410E+00
 -3.58195697E+00  2.57358021E+00  5.14298413E+00 -5.74140371E+00  3.63022058E+00
  3.17334149E+00 -6.98571277E+00  4.62892194E+00  1.06756298E+00 -5.76251195E+00
  4.28159027E+00  1.61758667E+00 -3.61257054E+00  2.99863631E+00  8.08662942E+00
 -2.09079298E+00  5.91068537E-01  4.47540059E+00  3.64921232E+00 -6.63312767E-01
  2.82967590E-01 -2.35242557E+00  2.53867697E+00  9.14561304E+00 -6.60402589E-01
 -6.38349485E-02  8.98857680E+00 -3.57073200E+00  1.36373976E+00
Number of symbols in /Mol/                 I                0
Force Field                                I                0
Atom Types                                 C   N=          13
                                                            
                                                            
                                    
Int Atom Types                             I   N=          13
           0           0           0           0           0           0
           0           0           0           0           0           0
           0
MM charges                                 R   N=          13
  0.00000000E+00  0.00000000E+00  0.00000000E+00  0.00000000E+00  0.00000000E+00
  0.00000000E+00  0.00000000E+00  0.00000000E+00  0.00000000E+00  0.00000000E+00
  0.00000000E+00  0.00000000E+00  0.00000000E+00
Integer atomic weights                     I   N=          13
          16          14          12          12          14          14
          14          14          14           1           1           1
           1
Real atomic weights                        R   N=          13
  1.59949146E+01  1.40030740E+01  1.20000000E+01  1.20000000E+01  1.40030740E+01
  1.40030740E+01  1.40030740E+01  1.40030740E+01  1.40030740E+01  1.00782504E+00
  1.00782504E+00  1.00782504E+00  1.00782504E+00
Atom fragment info                         I   N=          13
           0           0           0           0           0           0
           0           0           0           0           0           0
           0
Atom residue num                           I   N=          13
           0           0           0           0           0           0
           0           0           0           0           0           0
           0
Nuclear spins                              I   N=          13
           0           2           0           0           2           2
           2           2           2           1           1           1
           1
Nuclear ZEff                               R   N=          13
 -6.00000000E+00 -4.90000000E+00 -3.90000000E+00 -3.90000000E+00 -4.90000000E+00
 -4.90000000E+00 -4.90000000E+00 -4.90000000E+00 -4.90000000E+00 -1.00000000E+00
 -1.00000000E+00 -1.00000000E+00 -1.00000000E+00
Nuclear ZNuc                               R   N=          13
  8.00000000E+00  7.00000000E+00  6.00000000E+00  6.00000000E+00  7.00000000E+00
  7.00000000E+00  7.00000000E+00  7.00000000E+00  7.00000000E+00  1.00000000E+00
  1.00000000E+00  1.00000000E+00  1.00000000E+00
Nuclear QMom                               R   N=          13
  0.00000000E+00  2.04400000E+00  0.00000000E+00  0.00000000E+00  2.04400000E+00
  2.04400000E+00  2.04400000E+00  2.04400000E+00  2.04400000E+00  0.00000000E+00
  0.00000000E+00  0.00000000E+00  0.00000000E+00
Nuclear GFac                               R   N=          13
  0.00000000E+00  4.03761000E-01  0.00000000E+00  0.00000000E+00  4.03761000E-01
  4.03761000E-01  4.03761000E-01  4.03761000E-01  4.03761000E-01  2.79284600E+00
  2.79284600E+00  2.79284600E+00  2.79284600E+00
MicOpt                                     I   N=          13
          -1          -1          -1          -1          -1          -1
          -1          -1          -1          -1          -1          -1
          -1
Number of residues                         I                0
Number of secondary structures             I                0
Number of contracted shells                I               22
Number of primitive shells                 I              132
Pure/Cartesian d shells                    I                0
Pure/Cartesian f shells                    I                0
Highest angular momentum                   I                1
Largest degree of contraction              I                6
Shell types                                I   N=          22
           0           1           0           1           0           1
           0           1           0           1           0           1
           0           1           0           1           0           1
           0           0           0           0
Number of primitives per shell             I   N=          22
           6           6           6           6           6           6
           6           6           6           6           6           6
           6           6           6           6           6           6
           6           6           6           6
Shell to atom map                          I   N=          22
           1           1           2           2           3           3
           4           4           5           5           6           6
           7           7           8           8           9           9
          10          11          12          13
Primitive exponents                        R   N=         132
  1.43286984E+02  2.62773760E+01  7.38450955E+00  1.05600126E+00  4.79278319E-01
  2.28565122E-01  3.03720473E+01  7.92041230E+00  2.83399899E+00  1.18466575E+00
  5.41709880E-01  2.56101318E-01  1.05272070E+02  1.93058272E+01  5.42535396E+00
  7.75837661E-01  3.52122847E-01  1.67925396E-01  2.23141572E+01  5.81907842E+00
  2.08212170E+00  8.70366672E-01  3.97990932E-01  1.88156070E-01  7.31056039E+01
  1.34068245E+01  3.76760691E+00  5.38776153E-01  2.44529755E-01  1.16614858E-01
  1.54959425E+01  4.04102668E+00  1.44591785E+00  6.04421300E-01  2.76382592E-01
  1.30663938E-01  7.31056039E+01  1.34068245E+01  3.76760691E+00  5.38776153E-01
  2.44529755E-01  1.16614858E-01  1.54959425E+01  4.04102668E+00  1.44591785E+00
  6.04421300E-01  2.76382592E-01  1.30663938E-01  1.05272070E+02  1.93058272E+01
  5.42535396E+00  7.75837661E-01  3.52122847E-01  1.67925396E-01  2.23141572E+01
  5.81907842E+00  2.08212170E+00  8.70366672E-01  3.97990932E-01  1.88156070E-01
  1.05272070E+02  1.93058272E+01  5.42535396E+00  7.75837661E-01  3.52122847E-01
  1.67925396E-01  2.23141572E+01  5.81907842E+00  2.08212170E+00  8.70366672E-01
  3.97990932E-01  1.88156070E-01  1.05272070E+02  1.93058272E+01  5.42535396E+00
  7.75837661E-01  3.52122847E-01  1.67925396E-01  2.23141572E+01  5.81907842E+00
  2.08212170E+00  8.70366672E-01  3.97990932E-01  1.88156070E-01  1.05272070E+02
  1.93058272E+01  5.42535396E+00  7.75837661E-01  3.52122847E-01  1.67925396E-01
  2.23141572E+01  5.81907842E+00  2.08212170E+00  8.70366672E-01  3.97990932E-01
  1.88156070E-01  1.05272070E+02  1.93058272E+01  5.42535396E+00  7.75837661E-01
  3.52122847E-01  1.67925396E-01  2.23141572E+01  5.81907842E+00  2.08212170E+00
  8.70366672E-01  3.97990932E-01  1.88156070E-01  3.32683653E+01  6.09971837E+00
  1.70648139E+00  5.86222413E-01  2.27647318E-01  9.37577369E-02  3.32683653E+01
  6.09971837E+00  1.70648139E+00  5.86222413E-01  2.27647318E-01  9.37577369E-02
  3.32683653E+01  6.09971837E+00  1.70648139E+00  5.86222413E-01  2.27647318E-01
  9.37577369E-02  3.32683653E+01  6.09971837E+00  1.70648139E+00  5.86222413E-01
  2.27647318E-01  9.37577369E-02
Contraction coefficients                   R   N=         132
 -4.15127782E-03 -2.06702415E-02 -5.15030334E-02  3.34627117E-01  5.62106130E-01
  1.71299470E-01  7.92423365E-03  5.14410483E-02  1.89840006E-01  4.04986319E-01
  4.01236286E-01  1.05185519E-01 -4.15127782E-03 -2.06702415E-02 -5.15030334E-02
  3.34627117E-01  5.62106130E-01  1.71299470E-01  7.92423365E-03  5.14410483E-02
  1.89840006E-01  4.04986319E-01  4.01236286E-01  1.05185519E-01 -4.15127782E-03
 -2.06702415E-02 -5.15030334E-02  3.34627117E-01  5.62106130E-01  1.71299470E-01
  7.92423365E-03  5.14410483E-02  1.89840006E-01  4.04986319E-01  4.01236286E-01
  1.05185519E-01 -4.15127782E-03 -2.06702415E-02 -5.15030334E-02  3.34627117E-01
  5.62106130E-01  1.71299470E-01  7.92423365E-03  5.14410483E-02  1.89840006E-01
  4.04986319E-01  4.01236286E-01  1.05185519E-01 -4.15127782E-03 -2.06702415E-02
 -5.15030334E-02  3.34627117E-01  5.62106130E-01  1.71299470E-01  7.92423365E-03
  5.14410483E-02  1.89840006E-01  4.04986319E-01  4.01236286E-01  1.05185519E-01
 -4.15127782E-03 -2.06702415E-02 -5.15030334E-02  3.34627117E-01  5.62106130E-01
  1.71299470E-01  7.92423365E-03  5.14410483E-02  1.89840006E-01  4.04986319E-01
  4.01236286E-01  1.05185519E-01 -4.15127782E-03 -2.06702415E-02 -5.15030334E-02
  3.34627117E-01  5.62106130E-01  1.71299470E-01  7.92423365E-03  5.14410483E-02
  1.89840006E-01  4.04986319E-01  4.01236286E-01  1.05185519E-01 -4.15127782E-03
 -2.06702415E-02 -5.15030334E-02  3.34627117E-01  5.62106130E-01  1.71299470E-01
  7.92423365E-03  5.14410483E-02  1.89840006E-01  4.04986319E-01  4.01236286E-01
  1.05185519E-01 -4.15127782E-03 -2.06702415E-02 -5.15030334E-02  3.34627117E-01
  5.62106130E-01  1.71299470E-01  7.92423365E-03  5.14410483E-02  1.89840006E-01
  4.04986319E-01  4.01236286E-01  1.05185519E-01  9.16359628E-03  4.93614929E-02
  1.68538305E-01  3.70562800E-01  4.16491530E-01  1.30334084E-01  9.16359628E-03
  4.93614929E-02  1.68538305E-01  3.70562800E-01  4.16491530E-01  1.30334084E-01
  9.16359628E-03  4.93614929E-02  1.68538305E-01  3.70562800E-01  4.16491530E-01
  1.30334084E-01  9.16359628E-03  4.93614929E-02  1.68538305E-01  3.70562800E-01
  4.16491530E-01  1.30334084E-01
Coordinates of each shell                  R   N=          66
  5.77114800E+00  2.27526805E+00 -4.88154052E-01  5.77114800E+00  2.27526805E+00
 -4.88154052E-01  4.33034521E+00  4.70522908E-01  7.16962092E-01  4.33034521E+00
  4.70522908E-01  7.16962092E-01  5.61566133E+00 -1.58629280E+00  1.25666787E+00
  5.61566133E+00 -1.58629280E+00  1.25666787E+00  4.22000410E+00 -3.58195697E+00
  2.57358021E+00  4.22000410E+00 -3.58195697E+00  2.57358021E+00  5.14298413E+00
 -5.74140371E+00  3.63022058E+00  5.14298413E+00 -5.74140371E+00  3.63022058E+00
  3.17334149E+00 -6.98571277E+00  4.62892194E+00  3.17334149E+00 -6.98571277E+00
  4.62892194E+00  1.06756298E+00 -5.76251195E+00  4.28159027E+00  1.06756298E+00
 -5.76251195E+00  4.28159027E+00  1.61758667E+00 -3.61257054E+00  2.99863631E+00
  1.61758667E+00 -3.61257054E+00  2.99863631E+00  8.08662942E+00 -2.09079298E+00
  5.91068537E-01  8.08662942E+00 -2.09079298E+00  5.91068537E-01  4.47540059E+00
  3.64921232E+00 -6.63312767E-01  2.82967590E-01 -2.35242557E+00  2.53867697E+00
  9.14561304E+00 -6.60402589E-01 -6.38349485E-02  8.98857680E+00 -3.57073200E+00
  1.36373976E+00
Num ILSW                                   I              100
ILSW                                       I   N=         100
           0           0           0           0           2           0
           0           0           0           0           0          -1
           5           0           0           0           0           0
           0           0           1           0           0           0
           1           1           0           0           0           0
           0           0      100000           0          -1           0
           0           0           0           0           0           0
           0           0           0           5           0           0
           0 -2000000000           1           0           0           0
           0           0           4          52           0           0
           0           0           0           0           0           0
           0           0           0           0           0           1
           0           0           0           0           0           0
           0           0           0           0           0           0
           0           0           0           0           0           0
           0           0           0           0           0           0
           0           0           0           0
Num RLSW                                   I               52
RLSW                                       R   N=          52
  1.00000000E+00  1.00000000E+00  1.00000000E+00  1.00000000E+00  1.00000000E+00
  0.00000000E+00  0.00000000E+00  1.00000000E+00  0.00000000E+00  0.00000000E+00
  0.00000000E+00  0.00000000E+00  1.00000000E+00  0.00000000E+00  0.00000000E+00
  0.00000000E+00  0.00000000E+00  1.00000000E+00  0.00000000E+00  0.00000000E+00
  0.00000000E+00  0.00000000E+00  1.00000000E+00  0.00000000E+00  0.00000000E+00
  0.00000000E+00  0.00000000E+00  1.00000000E+00  0.00000000E+00  0.00000000E+00
  0.00000000E+00  0.00000000E+00  1.00000000E+00  0.00000000E+00  0.00000000E+00
  0.00000000E+00  0.00000000E+00  0.00000000E+00  1.00000000E+00  1.00000000E+00
  0.00000000E+00  1.00000000E+00  0.00000000E+00  0.00000000E+00  0.00000000E+00
  0.00000000E+00  0.00000000E+00  0.00000000E+00  0.00000000E+00  0.00000000E+00
  0.00000000E+00  0.00000000E+00
MxBond                                     I                3
NBond                                      I   N=          13
           2           2           3           3           2           2
           2           3           3           1           1           1
           1
IBond                                      I   N=          39
           2          10           0           1           3           0
           2           4           9           3           5           8
           4           6           0           5           7           0
           6           8           0           4           7          11
           3          12          13           1           0           0
           8           0           0           9           0           0
           9           0           0
RBond                                      R   N=          39
  1.00000000E+00  1.00000000E+00  0.00000000E+00  1.00000000E+00  1.50000000E+00
  0.00000000E+00  1.50000000E+00  1.00000000E+00  1.00000000E+00  1.00000000E+00
  1.50000000E+00  1.00000000E+00  1.50000000E+00  1.50000000E+00  0.00000000E+00
  1.50000000E+00  1.00000000E+00  0.00000000E+00  1.00000000E+00  1.50000000E+00
  0.00000000E+00  1.00000000E+00  1.50000000E+00  1.00000000E+00  1.00000000E+00
  1.00000000E+00  1.00000000E+00  1.00000000E+00  0.00000000E+00  0.00000000E+00
  1.00000000E+00  0.00000000E+00  0.00000000E+00  1.00000000E+00  0.00000000E+00
  0.00000000E+00  1.00000000E+00  0.00000000E+00  0.00000000E+00
Virial Ratio                               R      8.229976549960265E-01
SCF Energy                                 R     -7.793667087981601E+01
CIS Energy                                 R     -7.777258972434726E+01
Total Energy                               R     -7.777258972434726E+01
Post-SCF wavefunction norm                 R      1.000000000000000E+00
RMS Density                                R      5.394125890260783E-09
Job Status                                 I                1
Nuclear derivative order                   I                0
External E-field                           R   N=          35
  0.00000000E+00  0.00000000E+00  0.00000000E+00  0.00000000E+00  0.00000000E+00
  0.00000000E+00  0.00000000E+00  0.00000000E+00  0.00000000E+00  0.00000000E+00
  0.00000000E+00  0.00000000E+00  0.00000000E+00  0.00000000E+00  0.00000000E+00
  0.00000000E+00  0.00000000E+00  0.00000000E+00  0.00000000E+00  0.00000000E+00
  0.00000000E+00  0.00000000E+00  0.00000000E+00  0.00000000E+00  0.00000000E+00
  0.00000000E+00  0.00000000E+00  0.00000000E+00  0.00000000E+00  0.00000000E+00
  0.00000000E+00  0.00000000E+00  0.00000000E+00  0.00000000E+00  0.00000000E+00
IOpCl                                      I                0
IROHF                                      I                0
Alpha Orbital Energies                     R   N=          40
 -1.93215456E+00 -1.70795649E+00 -1.49679273E+00 -1.37581778E+00 -1.26873636E+00
 -1.18011744E+00 -1.01923920E+00 -9.35432369E-01 -8.90659514E-01 -7.96737834E-01
 -7.82353490E-01 -7.31832890E-01 -6.27449736E-01 -6.16695064E-01 -6.10621166E-01
 -5.60737294E-01 -5.15941645E-01 -4.82078188E-01 -4.55275840E-01 -4.38256523E-01
 -4.33038709E-01 -4.26144257E-01 -3.95691961E-01 -3.51819744E-01 -4.66905950E-02
 -6.03995353E-03  4.33383720E-02  7.08664618E-02  1.41231717E-01  1.69605916E-01
  2.28601965E-01  2.35956416E-01  2.79773805E-01  2.81532839E-01  3.09935680E-01
  3.47393963E-01  3.85534681E-01  4.45705782E-01  4.66423503E-01  4.89571360E-01
Alpha MO coefficients                      R   N=        1600
  1.44300157E-02 -3.07709907E-03 -3.68698441E-03  2.52090478E-03  3.48233552E-02
  4.99717683E-03 -1.21507132E-02  3.71065117E-03  7.42789341E-02 -2.19441629E-02
 -2.46368918E-02  1.69616717E-02  3.29128985E-01 -1.13143177E-01 -1.36248910E-01
  9.36493247E-02  3.58761720E-01 -2.07250891E-01  3.98234833E-02  1.01836032E-02
  4.05471677E-01 -2.84343164E-02  2.04463870E-01 -1.08955465E-01  4.15705377E-01
  2.14832064E-01  6.99611702E-02 -7.27225270E-02  4.14138067E-01  1.00560584E-01
 -1.50421645E-01  6.84962535E-02  3.13886165E-02 -8.32962292E-03 -2.08080396E-03
  5.29741898E-03  5.54902442E-03  1.05422658E-01  1.03064041E-02  1.83675553E-02
  5.50701254E-01 -1.31002812E-01 -1.12518112E-01  8.88892085E-02  4.93780977E-01
  1.93312528E-01  4.29941223E-02 -7.44745986E-02  3.83869411E-01  2.55681398E-02
  1.20362392E-01 -6.51057231E-02  9.19272828E-02  4.60727577E-02  7.24720515E-02
 -4.74094424E-02 -1.26014536E-02  3.00690511E-02  1.79801103E-02 -1.50956751E-02
 -5.71708857E-02  7.11997322E-03 -2.61399699E-02  1.33402924E-02 -5.39968742E-02
 -2.97202453E-02 -2.26459600E-03  5.97309103E-03 -3.05084257E-03  7.52606655E-03
  3.43982357E-02 -2.01324282E-02  3.00594252E-01 -7.99930210E-02  5.33988517E-02
  1.98633601E-02  2.09929678E-01  1.25357028E-02  1.40845350E-01  1.01273353E-01
 -4.38988116E-01  1.33846604E-01  5.69540996E-03 -4.33482162E-02 -1.31253110E-01
 -3.93369308E-02 -1.93915988E-01  9.49853640E-02  3.52632837E-01  1.48524268E-01
 -1.40553418E-01  1.25226459E-02  2.09195640E-01  1.19674639E-01  5.74622928E-02
 -5.74979979E-02  8.22058804E-02  3.65468241E-02  7.01299221E-02 -4.69611718E-02
 -7.52416592E-02  3.63727095E-02 -2.80017936E-02  9.40095025E-03 -1.06579437E-01
 -4.20307209E-02 -5.77121109E-03  9.64931228E-03 -1.96998123E-02  3.03104167E-02
  5.05568368E-02 -3.37335489E-02  5.46465651E-01 -7.68967763E-02 -1.01269619E-02
  6.64315887E-02 -2.02938447E-01  1.51626564E-03  1.97100400E-01  2.46238209E-01
 -1.24512079E-01  2.86854812E-02 -9.72654336E-03 -4.91722775E-03  1.18749946E-01
 -1.63980395E-02 -1.33680122E-01  6.12141505E-02  1.17320031E-01 -1.69097962E-01
  3.40020646E-02  2.85256002E-02  1.33144856E-01 -2.01241361E-01  1.98843024E-01
 -7.33384050E-02 -3.60880894E-01  1.24642147E-01  5.67033031E-02 -4.95625495E-02
 -3.55795424E-01 -9.98527820E-02 -8.71303974E-02  6.42801689E-02  8.64298762E-02
 -1.10895637E-01  2.06374576E-01 -9.67217546E-02  5.52529658E-01 -4.15499159E-02
  5.97395882E-02 -2.33401695E-02 -1.45689201E-01 -8.88583358E-03  4.28410868E-03
 -1.32544856E-02 -5.72696514E-02  2.87945443E-01 -6.42769210E-02 -7.55291755E-02
  7.64550727E-02 -1.13895941E-03  6.46924278E-03 -2.31804747E-03 -1.80196554E-01
  1.00468900E-02  1.24702763E-01 -5.89513798E-02 -1.62079662E-01  2.62786562E-01
  1.27663616E-02 -8.83690912E-02 -3.82791649E-01 -6.57734823E-02  2.79372145E-03
 -7.56128955E-04 -3.67463074E-01  5.36825062E-02 -7.39113511E-02  3.03612314E-02
  6.01479388E-02 -2.61218271E-01  1.20664347E-02  3.37101643E-02  4.14633166E-01
  6.38484339E-02  3.57347626E-02 -3.05938055E-02  8.94005400E-02 -1.98338841E-01
 -1.64350230E-01  1.20332914E-01  3.67466605E-01  6.10238493E-02  3.78854208E-02
 -5.32691048E-03  3.00814220E-02  3.54918918E-02  1.96619335E-01  1.51130074E-01
 -3.05404449E-01  7.02115684E-02 -1.49013368E-01  4.22978321E-02  3.36149519E-01
  8.58988237E-02 -2.63776708E-01  9.03167937E-02  2.50922736E-01 -1.62931672E-01
  2.38425134E-01 -6.14429789E-02 -1.63715424E-01  7.40018656E-03  1.57596608E-01
 -7.68119082E-02 -1.86743388E-01 -2.14537249E-02 -1.32285607E-01  8.01414681E-02
  3.04558832E-01 -2.01253858E-01  2.59533547E-02  1.81680930E-02  2.24760600E-01
  1.35753271E-01 -2.08293250E-01  9.49647920E-02 -2.29762733E-01  5.52330678E-04
 -2.36210810E-02  1.55987932E-02 -1.44321043E-01 -7.40142090E-02  8.03669116E-02
 -3.06149611E-02 -1.95147796E-01 -1.09654276E-01 -4.72347207E-02 -1.32162234E-01
 -1.55203244E-01  4.10646628E-02 -1.89041291E-01  6.80948783E-02  1.44574740E-01
  9.54276188E-02 -3.98154697E-02 -1.29511689E-02 -1.17933865E-01  5.07252064E-02
  2.85415493E-01 -1.44832541E-01 -2.95877312E-01 -1.61895956E-01 -8.44626541E-02
  7.87812575E-02  1.81806038E-01 -1.29664978E-01 -2.73272979E-01  1.74441899E-01
  4.46718138E-02  4.40194589E-01  1.11552328E-02 -7.44546512E-02 -2.21643215E-01
 -1.09475928E-01  2.18421237E-01 -1.03151473E-01  1.67794429E-01 -1.40724321E-01
  2.87493447E-02  9.34332243E-03  1.03340609E-01  1.08675665E-01  1.57083117E-01
 -9.35037916E-02 -1.53321791E-01  1.45752966E-01  1.73136024E-01 -2.64816720E-02
  1.19456052E-01  8.42797685E-03  1.95832337E-01 -8.61977348E-02 -1.02987426E-01
 -1.24974805E-01 -3.57945714E-02  4.77442203E-02 -7.10836428E-02 -1.06489066E-01
 -7.29851128E-02  5.36882824E-02  1.40306466E-02 -2.48735619E-01  2.33981034E-01
 -9.02136418E-02 -1.40439175E-01 -6.21324108E-02 -2.42019323E-01  1.44330831E-01
  3.53363483E-01  1.27912581E-02 -5.75042006E-02  3.03373350E-02 -1.85844073E-01
  9.36616339E-02 -2.93209989E-01  1.48952561E-01  1.23776855E-01  1.55256489E-01
  3.92293366E-01 -2.39780835E-01  1.16680520E-01  1.88173952E-01 -3.52764765E-02
 -2.96226514E-02  1.33711084E-01  1.87249140E-01  1.03422114E-01  1.05961307E-01
 -6.02530048E-02  1.37459445E-02 -1.34356894E-01  5.46603131E-02  7.55778040E-02
  4.39502155E-02  3.04012775E-02 -2.23681261E-02 -1.97732765E-01 -7.58739018E-02
  1.56705373E-01 -3.71963125E-02  1.40754558E-01 -3.21504237E-01 -1.32560573E-01
  1.35206194E-01 -1.70405904E-01 -8.82577327E-02  1.89607577E-01 -8.74942327E-02
 -2.10186242E-01 -1.58273616E-01  1.04961274E-01 -3.23000633E-02 -1.42318428E-01
  1.70234479E-01 -4.03124094E-02 -3.98853105E-03 -4.37652043E-02  4.99823726E-01
 -1.02372917E-01 -2.07752618E-02  1.00611697E-01  2.85234970E-01  1.19761724E-01
 -1.18943508E-01 -8.93404499E-02 -2.80013317E-01  2.31193428E-01  3.44529400E-02
 -1.50001446E-01 -1.32730278E-01 -9.66607016E-02  9.00394048E-02  3.05988174E-01
 -9.15776398E-02  8.29515747E-02  1.71296569E-02 -2.09997670E-01 -2.95476719E-01
  5.78172790E-02  1.24155021E-01 -3.12796544E-03  1.95669234E-01 -5.24924311E-02
  3.08955985E-02  1.68329627E-01  1.45872715E-01  1.06318878E-01 -7.15040988E-02
 -7.83370842E-03 -8.62305386E-02 -5.00856588E-02  4.76788944E-02  1.24273506E-01
 -7.88474650E-02 -5.60284573E-02  5.10391835E-02 -3.76678890E-02 -2.14016047E-01
  8.27841874E-02  5.39731366E-03  4.18708451E-02  4.83350615E-01 -3.05828135E-01
  5.00228409E-02 -4.11853938E-02  1.24945308E-01  2.75564328E-02  3.63006709E-01
  9.31707937E-02  6.95222272E-02  4.00750326E-01 -1.83423731E-01  2.68206655E-02
 -1.56894995E-01 -2.78299303E-01  1.83733033E-01  8.67071949E-02 -2.40216862E-01
  4.19022094E-02  7.44598127E-02 -3.99835746E-02 -9.03085389E-03  1.65294819E-01
 -6.53107821E-02 -5.25014718E-02 -8.24865912E-02 -1.66837453E-01  1.14963826E-01
 -5.81117369E-02  2.08152299E-01  5.39234155E-02 -5.77236537E-02  6.98925624E-02
 -5.13355389E-02  2.67918448E-01 -1.35963660E-01 -1.14274844E-01  6.19726267E-02
 -3.35614833E-01  1.87512957E-01  2.90607618E-02  2.07713202E-01 -1.01485961E-01
  1.37416327E-03  2.12496103E-01 -2.59318402E-01  3.41346400E-02  1.26529646E-01
  1.53512668E-01  2.36895869E-01  1.93968695E-01 -1.42784391E-01 -1.05329712E-01
 -1.79964002E-03 -2.37570256E-01  1.23134053E-01 -1.36224978E-02 -1.09891249E-01
  1.48903013E-01  7.67911446E-03  2.48986847E-02  1.76476814E-01 -1.18319765E-01
  8.82837163E-02  1.97207799E-01  1.31218530E-01  1.90215308E-01 -9.72665957E-02
 -5.98823817E-02 -1.30601597E-01 -2.76837926E-02  5.36816883E-02  1.05378781E-01
 -6.80792602E-02 -9.38696366E-02  8.09994278E-02 -3.77860191E-02 -1.93109319E-01
  1.30121798E-01 -9.24870114E-03 -2.66735026E-02  1.68705706E-01  4.30756508E-01
 -2.26346292E-01  5.66945998E-02  1.41654684E-01  3.54663025E-01 -2.52268856E-01
  2.41301226E-02  5.45064205E-02 -2.33678378E-03  1.14532253E-01 -4.18389645E-02
  7.88269188E-02  8.61818357E-02  1.37769988E-01  1.99732249E-02  8.76242144E-02
  7.21439666E-02  2.12562687E-01  6.10235926E-03  4.55667211E-02  2.07229206E-01
  3.30564408E-01 -2.89693607E-02  3.19999404E-02  1.56960211E-01  3.21187686E-01
  1.54855194E-02  6.21654954E-02  1.79794257E-01  3.24580184E-01 -1.72251211E-02
  6.96678833E-02  2.10053784E-01  3.57431513E-01  7.38871807E-03  8.34774409E-02
  2.38382428E-01  4.43337916E-01 -2.14218843E-02  9.81723608E-03  3.99496746E-02
  1.52976288E-01 -3.09250217E-02 -5.38103075E-03 -2.26734001E-02  1.52472184E-02
  3.79655930E-01  5.72062242E-01 -2.08292708E-01 -8.15341107E-02 -2.28027574E-01
  2.58096111E-01 -2.14375571E-01  2.14664575E-02  3.15375504E-03 -6.06537118E-02
  1.50646054E-01 -3.83328331E-02 -3.77474688E-02 -3.17128778E-02 -5.33307436E-02
  5.69565613E-03  1.83411406E-02  1.52600313E-02 -9.50263191E-05 -3.77651710E-02
 -1.21589248E-02 -3.04129664E-02 -3.74180772E-03 -3.14163864E-02 -2.41964810E-02
  2.34593065E-02 -3.45094873E-02 -2.64961476E-02  2.25558280E-02  1.63843161E-03
  4.02797517E-03 -4.95897997E-02 -4.69587670E-02  4.87962512E-02 -2.87357849E-01
  1.43599696E-01 -2.81376319E-01  1.47027235E-02 -1.73864255E-01  2.30002075E-01
 -1.00638207E-01 -7.37933575E-02  3.29795048E-01 -1.22321157E-01  1.66139765E-01
 -1.15356300E-01 -2.26338519E-01  1.19911852E-01 -7.00031125E-03  1.66457423E-01
  2.86384843E-01 -1.97030159E-01 -2.18640255E-01 -6.85106705E-02 -2.92522449E-01
  1.90208671E-01  2.40867625E-02 -7.16875885E-02  1.70518984E-01 -6.63179388E-02
 -1.24089801E-01 -1.45936556E-01  1.86418354E-01 -5.46205382E-02 -1.74527117E-01
  2.35684371E-01 -6.63812748E-02  3.29933081E-02  5.64890371E-02 -4.86306380E-02
  1.33565584E-01 -2.54320801E-02  5.14310103E-02 -1.82843080E-01 -1.82609989E-01
  1.21354429E-01  2.02343289E-01  1.44078776E-01 -2.12297520E-01  1.06067643E-01
 -2.31573782E-02  1.15481367E-01  2.26912275E-01  5.06214014E-01 -1.09370569E-02
  1.37639229E-01  1.96839469E-01  4.35717184E-01  2.94280620E-02  1.32198289E-01
  1.51295915E-01  3.39218256E-01 -5.46451479E-03  8.68116045E-03  3.37156297E-03
  1.52171314E-02 -3.29262973E-02 -4.43420785E-02 -4.19905257E-02 -8.46877023E-02
  1.21061718E-02 -3.12761087E-02 -8.33311397E-02 -1.81502600E-01 -4.10584070E-02
  9.84657081E-03 -1.09617218E-01 -2.16238277E-01  1.40945544E-02 -3.93882569E-02
 -8.85221177E-02 -1.65017399E-01 -4.70226183E-02  5.99188396E-02  1.53888841E-01
  3.05713471E-01  2.20525841E-02  1.22477553E-02  1.11372512E-02 -6.11849090E-05
  4.44809760E-02  2.98200441E-02 -1.23356738E-01 -6.32026710E-02 -8.07243425E-03
 -3.78693116E-02  5.46780743E-02 -5.67602765E-02  5.57589162E-02 -1.28096832E-01
 -1.63064709E-01  1.19360835E-01  4.32686006E-02  2.88954692E-01  3.58098048E-02
 -6.20588757E-02 -2.79710276E-01 -3.59014685E-01  9.55156555E-02 -3.65262740E-04
  3.45140720E-02 -5.20733930E-02  2.37897752E-01 -1.34833240E-01 -3.42753963E-01
  4.56956968E-01  1.04291141E-01 -1.42038829E-01 -1.85842709E-02 -3.17570645E-01
 -4.85122088E-02  7.21752031E-02 -3.35807425E-02  1.12550871E-01  5.39947343E-02
 -4.48546123E-02 -6.93427766E-02  1.56506681E-01  9.44381410E-02 -3.71303130E-02
  2.03264538E-02  2.19068318E-01  2.24551307E-01  5.82969960E-01  1.86965687E-02
 -7.02171929E-03  4.20204863E-02  7.16784006E-02 -2.43318129E-02 -1.19009228E-01
 -1.38520861E-01 -2.46753040E-01  7.94765102E-03  1.20117320E-02 -5.30814724E-02
 -1.15677739E-01 -8.92911244E-03 -3.48275971E-02 -5.53670309E-03 -1.48158349E-02
 -2.17413760E-02  1.44615445E-02  9.86752170E-02  8.17560877E-02 -2.52244211E-03