 Entering Gaussian System, Link 0=g16
 Initial command:
 /opt/apps/pkg/applications/licensed/gaussian/v16/x86_64AVX2/g16/l1.exe "/tmp/258292/817/3271_MCULE-8799433102_09/Gau-2076730.inp" -scrdir="/tmp/258292/817/3271_MCULE-8799433102_09/"
 Entering Link 1 = /opt/apps/pkg/applications/licensed/gaussian/v16/x86_64AVX2/g16/l1.exe PID=   2076734.
  
 Copyright (c) 1988,1990,1992,1993,1995,1998,2003,2009,2016,
            Gaussian, Inc.  All Rights Reserved.
  
 This is part of the Gaussian(R) 16 program.  It is based on
 the Gaussian(R) 09 system (copyright 2009, Gaussian, Inc.),
 the Gaussian(R) 03 system (copyright 2003, Gaussian, Inc.),
 the Gaussian(R) 98 system (copyright 1998, Gaussian, Inc.),
 the Gaussian(R) 94 system (copyright 1995, Gaussian, Inc.),
 the Gaussian 92(TM) system (copyright 1992, Gaussian, Inc.),
 the Gaussian 90(TM) system (copyright 1990, Gaussian, Inc.),
 the Gaussian 88(TM) system (copyright 1988, Gaussian, Inc.),
 the Gaussian 86(TM) system (copyright 1986, Carnegie Mellon
 University), and the Gaussian 82(TM) system (copyright 1983,
 Carnegie Mellon University). Gaussian is a federally registered
 trademark of Gaussian, Inc.
  
 This software contains proprietary and confidential information,
 including trade secrets, belonging to Gaussian, Inc.
  
 This software is provided under written license and may be
 used, copied, transmitted, or stored only in accord with that
 written license.
  
 The following legend is applicable only to US Government
 contracts under FAR:
  
                    RESTRICTED RIGHTS LEGEND
  
 Use, reproduction and disclosure by the US Government is
 subject to restrictions as set forth in subparagraphs (a)
 and (c) of the Commercial Computer Software - Restricted
 Rights clause in FAR 52.227-19.
  
 Gaussian, Inc.
 340 Quinnipiac St., Bldg. 40, Wallingford CT 06492
  
  
 ---------------------------------------------------------------
 Warning -- This program may not be used in any manner that
 competes with the business of Gaussian, Inc. or will provide
 assistance to any competitor of Gaussian, Inc.  The licensee
 of this program is prohibited from giving any competitor of
 Gaussian, Inc. access to this program.  By using this program,
 the user acknowledges that Gaussian, Inc. is engaged in the
 business of creating and licensing software in the field of
 computational chemistry and represents and warrants to the
 licensee that it is not a competitor of Gaussian, Inc. and that
 it will not use this program in any manner prohibited above.
 ---------------------------------------------------------------
  

 Cite this work as:
 Gaussian 16, Revision A.03,
 M. J. Frisch, G. W. Trucks, H. B. Schlegel, G. E. Scuseria, 
 M. A. Robb, J. R. Cheeseman, G. Scalmani, V. Barone, 
 G. A. Petersson, H. Nakatsuji, X. Li, M. Caricato, A. V. Marenich, 
 J. Bloino, B. G. Janesko, R. Gomperts, B. Mennucci, H. P. Hratchian, 
 J. V. Ortiz, A. F. Izmaylov, J. L. Sonnenberg, D. Williams-Young, 
 F. Ding, F. Lipparini, F. Egidi, J. Goings, B. Peng, A. Petrone, 
 T. Henderson, D. Ranasinghe, V. G. Zakrzewski, J. Gao, N. Rega, 
 G. Zheng, W. Liang, M. Hada, M. Ehara, K. Toyota, R. Fukuda, 
 J. Hasegawa, M. Ishida, T. Nakajima, Y. Honda, O. Kitao, H. Nakai, 
 T. Vreven, K. Throssell, J. A. Montgomery, Jr., J. E. Peralta, 
 F. Ogliaro, M. J. Bearpark, J. J. Heyd, E. N. Brothers, K. N. Kudin, 
 V. N. Staroverov, T. A. Keith, R. Kobayashi, J. Normand, 
 K. Raghavachari, A. P. Rendell, J. C. Burant, S. S. Iyengar, 
 J. Tomasi, M. Cossi, J. M. Millam, M. Klene, C. Adamo, R. Cammi, 
 J. W. Ochterski, R. L. Martin, K. Morokuma, O. Farkas, 
 J. B. Foresman, and D. J. Fox, Gaussian, Inc., Wallingford CT, 2016.
 
 ******************************************
 Gaussian 16:  ES64L-G16RevA.03 25-Dec-2016
                12-Aug-2025 
 ******************************************
 %nproc=4
 Will use up to    4 processors via shared memory.
 %chk=MCULE-8799433102_09.chk
 --------------------------------------------------------
 #n ZINDO sp IOP(5/33=2) PUNCH=(MO,Coord) pop=full nosymm
 --------------------------------------------------------
 1/38=1,172=1/1;
 2/12=2,15=1,17=6,18=5,40=1/2;
 3/5=2,25=1,41=400000/1,2,3,8;
 4/5=3,35=1/1;
 5/5=2,33=2,35=1,38=5/2;
 8/6=1/1;
 9/42=1,49=10/14;
 6/7=3/1;
 99/5=1,9=1,10=34/99;
 -----
 title
 -----
 Symbolic Z-matrix:
 Charge =  0 Multiplicity = 1
 O                     3.05396   1.20402  -0.25832 
 N                     2.29152   0.24899   0.3794 
 C                     2.97168  -0.83943   0.665 
 C                     2.23313  -1.89549   1.36188 
 N                     2.72155  -3.03822   1.92103 
 N                     1.67926  -3.69668   2.44952 
 N                     0.56493  -3.04939   2.26572 
 N                     0.85599  -1.91169   1.58681 
 N                     4.27926  -1.1064    0.31278 
 H                     2.36828   1.93108  -0.35101 
 H                     0.14974  -1.24485   1.34341 
 H                     4.83965  -0.34947  -0.03378 
 H                     4.75655  -1.88955   0.72166 
 
                          Input orientation:                          
 ---------------------------------------------------------------------
 Center     Atomic      Atomic             Coordinates (Angstroms)
 Number     Number       Type             X           Y           Z
 ---------------------------------------------------------------------
      1          8           0        3.053960    1.204020   -0.258320
      2          7           0        2.291520    0.248990    0.379400
      3          6           0        2.971680   -0.839430    0.665000
      4          6           0        2.233130   -1.895490    1.361880
      5          7           0        2.721550   -3.038220    1.921030
      6          7           0        1.679260   -3.696680    2.449520
      7          7           0        0.564930   -3.049390    2.265720
      8          7           0        0.855990   -1.911690    1.586810
      9          7           0        4.279260   -1.106400    0.312780
     10          1           0        2.368280    1.931080   -0.351010
     11          1           0        0.149740   -1.244850    1.343410
     12          1           0        4.839650   -0.349470   -0.033780
     13          1           0        4.756550   -1.889550    0.721660
 ---------------------------------------------------------------------
                    Distance matrix (angstroms):
                    1          2          3          4          5
     1  O    0.000000
     2  N    1.378435   0.000000
     3  C    2.243876   1.314855   0.000000
     4  C    3.592460   2.359549   1.465046   0.000000
     5  N    4.780864   3.656132   2.544573   1.362731   0.000000
     6  N    5.765332   4.497618   3.608149   2.175780   1.341357
     7  N    5.536926   4.173563   3.638499   2.220654   2.184021
     8  N    4.235944   2.861315   2.544724   1.395482   2.204787
     9  N    2.676856   2.406788   1.380253   2.431033   2.957170
    10  H    1.003676   1.835434   3.011992   4.194627   5.475482
    11  H    4.122741   2.783540   2.930521   2.182702   3.188107
    12  H    2.377486   2.649875   2.053696   3.336464   3.941701
    13  H    3.664608   3.281291   2.071647   2.603376   2.626624
                    6          7          8          9         10
     6  N    0.000000
     7  N    1.301729   0.000000
     8  N    2.146679   1.356465   0.000000
     9  N    4.246788   4.624439   3.740377   0.000000
    10  H    6.323717   5.907997   4.561694   3.649486   0.000000
    11  H    3.094250   2.068672   1.001353   4.258439   4.228417
    12  H    5.230551   5.554323   4.575630   1.003536   3.377753
    13  H    3.964963   4.615087   3.995415   1.004148   4.631595
                   11         12         13
    11  H    0.000000
    12  H    4.969267   0.000000
    13  H    4.693070   1.717394   0.000000
 Symmetry turned off by external request.
 Stoichiometry    C2H4N6O
 Framework group  C1[X(C2H4N6O)]
 Deg. of freedom    33
 Full point group                 C1      NOp   1
 Rotational constants (GHZ):           4.5060269           1.0463646           0.8518293
 Standard basis: VSTO-6G (5D, 7F)
    40 basis functions,   240 primitive gaussians,    40 cartesian basis functions
    24 alpha electrons       24 beta electrons
       nuclear repulsion energy       227.5943904808 Hartrees.
 Integral buffers will be    131072 words long.
 Regular integral format.
 Two-electron integral symmetry is turned off.
 Do NDO integrals.
 One-electron integrals computed using PRISM.
 Generate ZINDO/S integrals.
 NDO Nuclear repulsion=   162.252080355531 Hartrees.
 NBasis=    40 RedAO= F EigKep=  0.00D+00  NBF=    40
 NBsUse=    40 1.00D-04 EigRej=  0.00D+00 NBFU=    40
 DipDrv:  will hold  3 matrices at once.
 Simple Huckel Guess.
 A Direct SCF calculation will be performed.
 ReadGW:  IGet=1 IStart=         386 Next=         386 LGW=           0.
 Two-electron integral symmetry not used.
 Pruned (  99, 590) grid will be used in numerical quadrature.
 Closed shell SCF:
 Using DIIS extrapolation, IDIIS=  1040.
 Overlap will be assumed to be unity.
 NBasis=       40 NAllTT=      820 NAllSq=     1600 NWIIB=         0
 INEq=        449 IIJ=         449 ID=          590
 IDD=        2190 IDA=         590 IDB=        1410 IF=         2230
 IFF=        3830 IFA=        2230 IFB=        3050 IScr2=      3870
 IV=         4190 IBuf2E=      490 IMin=      20831
 IOpCl=         0
 NGot=   104857600 LenX=   104853411 LenY=   104851370
 Requested convergence on RMS density matrix=1.00D-08 within 128 cycles.
 Requested convergence on MAX density matrix=1.00D-06.
 Requested convergence on             energy=1.00D-06.
 No special actions if energy rises.
 Fock matrices will be formed incrementally for  20 cycles.
 Selected VarAcc= 1.

 Cycle   1  Pass 1  IDiag  1:
 One-electron energy=-0.439630902056D+03
 FoF2E:  PMaxA= 9.16D-01S
 Calling FoFJK with Acc= 0.00D+00 ICntrl=       0.
 FoF2E:  FMaxA= 9.03D+00S
 ChkPGP:  NMat=1 NMatS=1 NMatT=0
 EA=  199.962317755      0.00000000000      0.00000000000      0.00000000000    
 EB=  199.962317755      0.00000000000      0.00000000000      0.00000000000    
 ETotA=  199.962317755     ETotB=  199.962317755    
 1/2 <PG(P)>=         199.962317754800
 IMat=  1 1/2 <PG(P)>=         199.962317754800
 IMat=  1 EOne=-0.439630902056D+03 ETwo= 0.199962317755D+03 Energy=-0.239668584301D+03
 1/2 <PG(P)>=         199.962317754800
 E= -77.4165039451865    
 DIIS: error= 5.75D-02 at cycle   1 NSaved=   1.
 B matrix at iteration          1
                 1             2 
      1   0.000000D+00 -0.100000D+01
      2  -0.100000D+01 -0.182622D+00
 Tr matrix at iteration          1
                 1             2 
      1   0.000000D+00  0.000000D+00
      2   0.000000D+00 -0.198531D+02
 BE matrix at iteration          1
                 1             2 
      1   0.000000D+00 -0.100000D+01
      2  -0.100000D+01  0.000000D+00
 NSaved= 1 IEnMin= 1 EnMin= -77.4165039451865     IErMin= 1 ErrMin= 5.75D-02
 ErrMax= 5.75D-02  0.00D+00 EMaxC= 1.00D-01 BMatC= 1.83D-01 BMatP= 1.83D-01
 IDIUse=3 WtCom= 4.25D-01 WtEn= 5.75D-01
 UpdtCf It   0X -77.41650395      1.00000000
 UpdtCf It   0Y -77.41650395      1.00000000
 EnCoef: B12  0.0000000D+00 lambda  0.000000
 UpdtCf It   1F -77.41650395      1.00000000
 UpdtCf It   1B -77.41650395      1.00000000
 Eold -77.41650394519     Efwd -77.41650394519     Ebck -77.41650394519    
 Coeff-Com:  0.100D+01
 Coeff-En:   0.100D+01
 Coeff:      0.100D+01
 NOrbs=    40 LenY=   104851370 NE2=     2621284 LScr= 7
 GapD=    2.000 DampG=2.000 DampE=0.500 DampFc=1.0000 IDamp=-1.
 RMSDP=1.76D-02 MaxDP=1.22D-01              OVMax= 0.00D+00

 Cycle   2  Pass 1  IDiag  1:
 One-electron energy=-0.440485862941D+03
 RMSU=  1.75D-02    CP:  9.90D-01
 FoF2E:  PMaxA= 1.29D-01S
 Calling FoFJK with Acc= 0.00D+00 ICntrl=       0.
 FoF2E:  FMaxA= 1.95D-01S
 ChkPGP:  NMat=1 NMatS=1 NMatT=0
 EA=-0.476724718385E-01  0.00000000000      0.00000000000      0.00000000000    
 EB=-0.476724718385E-01  0.00000000000      0.00000000000      0.00000000000    
 ETotA=-0.476724718385E-01 ETotB=-0.476724718385E-01
 1/2 <PG(P)>=          -0.047672471839
 IMat=  1 1/2 <PG(P)>=         200.343989121449
 IMat=  1 EOne=-0.440485862941D+03 ETwo= 0.200343989121D+03 Energy=-0.240141873819D+03
 1/2 <PG(P)>=         200.343989121449
 E= -77.8897934635373     Delta-E=       -0.473289518351 Rises=F Damp=F
 DIIS: error= 1.49D-02 at cycle   2 NSaved=   2.
 B matrix at iteration          2
                 1             2             3 
      1   0.000000D+00 -0.100000D+01 -0.100000D+01
      2  -0.100000D+01 -0.182622D+00 -0.300211D-01
      3  -0.100000D+01 -0.300211D-01 -0.169943D-01
 Tr matrix at iteration          2
                 1             2             3 
      1  -0.774165D+02  0.000000D+00  0.000000D+00
      2   0.100000D+01 -0.198531D+02 -0.200531D+02
      3   0.000000D+00 -0.196256D+02 -0.198989D+02
 BE matrix at iteration          2
                 1             2             3 
      1   0.000000D+00 -0.100000D+01 -0.100000D+01
      2  -0.100000D+01  0.000000D+00 -0.734395D-01
      3  -0.100000D+01 -0.734395D-01  0.000000D+00
 NSaved= 2 IEnMin= 2 EnMin= -77.8897934635373     IErMin= 2 ErrMin= 1.49D-02
 ErrMax= 1.49D-02  0.00D+00 EMaxC= 1.00D-01 BMatC= 1.70D-02 BMatP= 1.83D-01
 IDIUse=3 WtCom= 8.51D-01 WtEn= 1.49D-01
 Inv2:  IOpt= 1 Iter= 1 AM= 8.29D-16 Conv= 1.00D-12.
  NMat       2 lam      0.000000      B12    -0.073440
 UpdtCf It   0X -77.88979346      0.00000000  1.00000000
  NMat       1 lam      0.000000      B12    -0.073440
 UpdtCf It   0Y -77.88979346      0.00000000  1.00000000
 EnCoef: B12 -0.7343951D-01 lambda  0.000000
 UpdtCf It   1F -77.88979346      0.00000000  1.00000000
 UpdtCf It   1B -77.88979346      0.00000000  1.00000000
 Eold -77.41650394519     Efwd -77.88979346354     Ebck -77.88979346354    
 Coeff-Com: -0.933D-01 0.109D+01
 Coeff-En:   0.000D+00 0.100D+01
 Coeff:     -0.794D-01 0.108D+01
 NOrbs=    40 LenY=   104851370 NE2=     2621284 LScr= 7
 RMSDP=5.54D-03 MaxDP=4.31D-02 DE=-4.73D-01 OVMax= 0.00D+00

 Cycle   3  Pass 1  IDiag  1:
 One-electron energy=-0.440301857064D+03
 RMSU=  4.77D-03    CP:  9.85D-01  1.16D+00
 FoF2E:  PMaxA= 4.75D-02S
 Calling FoFJK with Acc= 0.00D+00 ICntrl=       0.
 FoF2E:  FMaxA= 6.15D-02S
 ChkPGP:  NMat=1 NMatS=1 NMatT=0
 EA= 0.409863775792E-02  0.00000000000      0.00000000000      0.00000000000    
 EB= 0.409863775792E-02  0.00000000000      0.00000000000      0.00000000000    
 ETotA= 0.409863775792E-02 ETotB= 0.409863775792E-02
 1/2 <PG(P)>=           0.004098637758
 IMat=  1 1/2 <PG(P)>=         200.118119424345
 IMat=  1 EOne=-0.440301857064D+03 ETwo= 0.200118119424D+03 Energy=-0.240183737640D+03
 1/2 <PG(P)>=         200.118119424345
 E= -77.9316572843595     Delta-E=       -0.041863820822 Rises=F Damp=F
 DIIS: error= 4.28D-03 at cycle   3 NSaved=   3.
 B matrix at iteration          3
                 1             2             3             4 
      1   0.000000D+00 -0.100000D+01 -0.100000D+01 -0.100000D+01
      2  -0.100000D+01 -0.182622D+00 -0.300211D-01 -0.134725D-01
      3  -0.100000D+01 -0.300211D-01 -0.169943D-01 -0.922374D-03
      4  -0.100000D+01 -0.134725D-01 -0.922374D-03 -0.177723D-02
 Tr matrix at iteration          3
                 1             2             3             4 
      1  -0.778898D+02  0.000000D+00  0.000000D+00  0.000000D+00
      2   0.000000D+00 -0.198531D+02 -0.200531D+02 -0.200332D+02
      3   0.100000D+01 -0.196256D+02 -0.198989D+02 -0.199165D+02
      4   0.000000D+00 -0.196977D+02 -0.200085D+02 -0.200328D+02
 BE matrix at iteration          3
                 1             2             3             4 
      1   0.000000D+00 -0.100000D+01 -0.100000D+01 -0.100000D+01
      2  -0.100000D+01  0.000000D+00 -0.734395D-01 -0.155070D+00
      3  -0.100000D+01 -0.734395D-01  0.000000D+00 -0.673179D-02
      4  -0.100000D+01 -0.155070D+00 -0.673179D-02  0.000000D+00
 NSaved= 3 IEnMin= 3 EnMin= -77.9316572843595     IErMin= 3 ErrMin= 4.28D-03
 ErrMax= 4.28D-03  0.00D+00 EMaxC= 1.00D-01 BMatC= 1.78D-03 BMatP= 1.70D-02
 IDIUse=3 WtCom= 9.57D-01 WtEn= 4.28D-02
 Inv2:  IOpt= 1 Iter= 1 AM= 4.96D-15 Conv= 1.00D-12.
  NMat       2 lam      0.000000      B12    -0.073440
  NMat       3 lam      0.000000      B12    -0.006732
 UpdtCf It   0X -77.93165728      0.00000000  0.00000000  1.00000000
  NMat       2 lam      0.000000      B12    -0.006732
  NMat       1 lam      0.000000      B12    -0.155070
 UpdtCf It   0Y -77.93165728      0.00000000  0.00000000  1.00000000
 EnCoef: B12 -0.6731785D-02 lambda  0.000000
  NMat       1 lam      0.000000      B12    -0.155070
  NMat       2 lam      0.000000      B12    -0.006732
  NMat       3 lam      0.000000      B12     0.000000
 UpdtCf It   1F -77.93165728      0.00000000  0.00000000  1.00000000
  NMat       3 lam      0.000000      B12     0.000000
  NMat       2 lam      0.000000      B12    -0.006732
  NMat       1 lam      0.000000      B12    -0.155070
 UpdtCf It   1B -77.93165728      0.00000000  0.00000000  1.00000000
 Eold -77.88979346354     Efwd -77.93165728436     Ebck -77.93165728436    
 Coeff-Com: -0.901D-01 0.143D+00 0.947D+00
 Coeff-En:   0.000D+00 0.000D+00 0.100D+01
 Coeff:     -0.862D-01 0.137D+00 0.949D+00
 NOrbs=    40 LenY=   104851370 NE2=     2621284 LScr= 7
 RMSDP=2.02D-03 MaxDP=1.87D-02 DE=-4.19D-02 OVMax= 0.00D+00

 Cycle   4  Pass 1  IDiag  1:
 One-electron energy=-0.440326534281D+03
 RMSU=  1.02D-03    CP:  9.83D-01  1.26D+00  1.01D+00
 FoF2E:  PMaxA= 6.29D-03S
 Calling FoFJK with Acc= 0.00D+00 ICntrl=       0.
 FoF2E:  FMaxA= 1.69D-02S
 ChkPGP:  NMat=1 NMatS=1 NMatT=0
 EA= 0.292961103460E-03  0.00000000000      0.00000000000      0.00000000000    
 EB= 0.292961103460E-03  0.00000000000      0.00000000000      0.00000000000    
 ETotA= 0.292961103460E-03 ETotB= 0.292961103460E-03
 1/2 <PG(P)>=           0.000292961103
 IMat=  1 1/2 <PG(P)>=         200.138106889423
 IMat=  1 EOne=-0.440326534281D+03 ETwo= 0.200138106889D+03 Energy=-0.240188427391D+03
 1/2 <PG(P)>=         200.138106889423
 E= -77.9363470357950     Delta-E=       -0.004689751435 Rises=F Damp=F
 DIIS: error= 1.04D-03 at cycle   4 NSaved=   4.
 B matrix at iteration          4
                 1             2             3             4             5 
      1   0.000000D+00 -0.100000D+01 -0.100000D+01 -0.100000D+01 -0.100000D+01
      2  -0.100000D+01 -0.182622D+00 -0.300211D-01 -0.134725D-01 -0.474016D-03
      3  -0.100000D+01 -0.300211D-01 -0.169943D-01 -0.922374D-03 -0.668780D-03
      4  -0.100000D+01 -0.134725D-01 -0.922374D-03 -0.177723D-02 -0.446704D-04
      5  -0.100000D+01 -0.474016D-03 -0.668780D-03 -0.446704D-04 -0.691306D-04
 Tr matrix at iteration          4
                 1             2             3             4             5 
      1  -0.779317D+02  0.000000D+00  0.000000D+00  0.000000D+00  0.000000D+00
      2   0.000000D+00 -0.198531D+02 -0.200531D+02 -0.200332D+02 -0.200247D+02
      3   0.000000D+00 -0.196256D+02 -0.198989D+02 -0.199165D+02 -0.199138D+02
      4   0.100000D+01 -0.196977D+02 -0.200085D+02 -0.200328D+02 -0.200349D+02
      5   0.000000D+00 -0.196769D+02 -0.199934D+02 -0.200225D+02 -0.200252D+02
 BE matrix at iteration          4
                 1             2             3             4             5 
      1   0.000000D+00 -0.100000D+01 -0.100000D+01 -0.100000D+01 -0.100000D+01
      2  -0.100000D+01  0.000000D+00 -0.734395D-01 -0.155070D+00 -0.176769D+00
      3  -0.100000D+01 -0.734395D-01  0.000000D+00 -0.673179D-02 -0.169327D-01
      4  -0.100000D+01 -0.155070D+00 -0.673179D-02  0.000000D+00 -0.598767D-03
      5  -0.100000D+01 -0.176769D+00 -0.169327D-01 -0.598767D-03  0.000000D+00
 NSaved= 4 IEnMin= 4 EnMin= -77.9363470357950     IErMin= 4 ErrMin= 1.04D-03
 ErrMax= 1.04D-03  0.00D+00 EMaxC= 1.00D-01 BMatC= 6.91D-05 BMatP= 1.78D-03
 IDIUse=3 WtCom= 9.90D-01 WtEn= 1.04D-02
 Inv2:  IOpt= 1 Iter= 1 AM= 7.94D-13 Conv= 1.00D-12.
  NMat       2 lam      0.000000      B12    -0.073440
  NMat       3 lam      0.000000      B12    -0.006732
  NMat       4 lam      0.000000      B12    -0.000599
 UpdtCf It   0X -77.93634704      0.00000000  0.00000000  0.00000000  1.00000000
  NMat       3 lam      0.000000      B12    -0.000599
  NMat       2 lam      0.000000      B12    -0.016933
  NMat       1 lam      0.000000      B12    -0.176769
 UpdtCf It   0Y -77.93634704      0.00000000  0.00000000  0.00000000  1.00000000
 EnCoef: B12 -0.5987672D-03 lambda  0.000000
  NMat       1 lam      0.000000      B12    -0.176769
  NMat       2 lam      0.000000      B12    -0.016933
  NMat       3 lam      0.000000      B12    -0.000599
  NMat       4 lam      0.000000      B12     0.000000
 UpdtCf It   1F -77.93634704      0.00000000  0.00000000  0.00000000  1.00000000
  NMat       4 lam      0.000000      B12     0.000000
  NMat       3 lam      0.000000      B12    -0.000599
  NMat       2 lam      0.000000      B12    -0.016933
  NMat       1 lam      0.000000      B12    -0.176769
 UpdtCf It   1B -77.93634704      0.00000000  0.00000000  0.00000000  1.00000000
 Eold -77.93165728436     Efwd -77.93634703579     Ebck -77.93634703579    
 Coeff-Com:  0.115D-01-0.581D-01-0.619D-01 0.111D+01
 Coeff-En:   0.000D+00 0.000D+00 0.000D+00 0.100D+01
 Coeff:      0.113D-01-0.575D-01-0.612D-01 0.111D+01
 NOrbs=    40 LenY=   104851370 NE2=     2621284 LScr= 7
 RMSDP=5.77D-04 MaxDP=6.67D-03 DE=-4.69D-03 OVMax= 0.00D+00

 Cycle   5  Pass 1  IDiag  1:
 One-electron energy=-0.440315188747D+03
 RMSU=  3.26D-04    CP:  9.83D-01  1.26D+00  1.10D+00  1.23D+00
 FoF2E:  PMaxA= 4.24D-03S
 Calling FoFJK with Acc= 0.00D+00 ICntrl=       0.
 FoF2E:  FMaxA= 3.97D-03S
 ChkPGP:  NMat=1 NMatS=1 NMatT=0
 EA= 0.212800374312E-04  0.00000000000      0.00000000000      0.00000000000    
 EB= 0.212800374312E-04  0.00000000000      0.00000000000      0.00000000000    
 ETotA= 0.212800374312E-04 ETotB= 0.212800374312E-04
 1/2 <PG(P)>=           0.000021280037
 IMat=  1 1/2 <PG(P)>=         200.126477028997
 IMat=  1 EOne=-0.440315188747D+03 ETwo= 0.200126477029D+03 Energy=-0.240188711718D+03
 1/2 <PG(P)>=         200.126477028997
 E= -77.9366313625689     Delta-E=       -0.000284326774 Rises=F Damp=F
 DIIS: error= 5.39D-04 at cycle   5 NSaved=   5.
 B matrix at iteration          5
                 1             2             3             4             5 
      1   0.000000D+00 -0.100000D+01 -0.100000D+01 -0.100000D+01 -0.100000D+01
      2  -0.100000D+01 -0.182622D+00 -0.300211D-01 -0.134725D-01 -0.474016D-03
      3  -0.100000D+01 -0.300211D-01 -0.169943D-01 -0.922374D-03 -0.668780D-03
      4  -0.100000D+01 -0.134725D-01 -0.922374D-03 -0.177723D-02 -0.446704D-04
      5  -0.100000D+01 -0.474016D-03 -0.668780D-03 -0.446704D-04 -0.691306D-04
      6  -0.100000D+01 -0.199256D-03 -0.261828D-04 -0.747316D-04 -0.410151D-05
                 6 
      1  -0.100000D+01
      2  -0.199256D-03
      3  -0.261828D-04
      4  -0.747316D-04
      5  -0.410151D-05
      6  -0.119691D-04
 Tr matrix at iteration          5
                 1             2             3             4             5 
      1  -0.779363D+02  0.000000D+00  0.000000D+00  0.000000D+00  0.000000D+00
      2   0.000000D+00 -0.198531D+02 -0.200531D+02 -0.200332D+02 -0.200247D+02
      3   0.000000D+00 -0.196256D+02 -0.198989D+02 -0.199165D+02 -0.199138D+02
      4   0.000000D+00 -0.196977D+02 -0.200085D+02 -0.200328D+02 -0.200349D+02
      5   0.100000D+01 -0.196769D+02 -0.199934D+02 -0.200225D+02 -0.200252D+02
      6   0.000000D+00 -0.196796D+02 -0.199982D+02 -0.200279D+02 -0.200309D+02
                 6 
      1   0.000000D+00
      2  -0.200217D+02
      3  -0.199129D+02
      4  -0.200346D+02
      5  -0.200253D+02
      6  -0.200311D+02
 BE matrix at iteration          5
                 1             2             3             4             5 
      1   0.000000D+00 -0.100000D+01 -0.100000D+01 -0.100000D+01 -0.100000D+01
      2  -0.100000D+01  0.000000D+00 -0.734395D-01 -0.155070D+00 -0.176769D+00
      3  -0.100000D+01 -0.734395D-01  0.000000D+00 -0.673179D-02 -0.169327D-01
      4  -0.100000D+01 -0.155070D+00 -0.673179D-02  0.000000D+00 -0.598767D-03
      5  -0.100000D+01 -0.176769D+00 -0.169327D-01 -0.598767D-03  0.000000D+00
      6  -0.100000D+01 -0.182949D+00 -0.189839D-01 -0.147426D-02 -0.823354D-04
                 6 
      1  -0.100000D+01
      2  -0.182949D+00
      3  -0.189839D-01
      4  -0.147426D-02
      5  -0.823354D-04
      6   0.000000D+00
 NSaved= 5 IEnMin= 5 EnMin= -77.9366313625689     IErMin= 5 ErrMin= 5.39D-04
 ErrMax= 5.39D-04  0.00D+00 EMaxC= 1.00D-01 BMatC= 1.20D-05 BMatP= 6.91D-05
 IDIUse=3 WtCom= 9.95D-01 WtEn= 5.39D-03
 Inv2:  IOpt= 1 Iter= 1 AM= 7.21D-12 Conv= 1.00D-12.
 Inv2:  IOpt= 1 Iter= 2 AM= 2.27D-27 Conv= 1.00D-12.
  NMat       2 lam      0.000000      B12    -0.073440
  NMat       3 lam      0.000000      B12    -0.006732
  NMat       4 lam      0.000000      B12    -0.000599
  NMat       5 lam      0.000000      B12    -0.000082
 UpdtCf It   0X -77.93663136      0.00000000  0.00000000  0.00000000  0.00000000  1.00000000
  NMat       4 lam      0.000000      B12    -0.000082
  NMat       3 lam      0.000000      B12    -0.001474
  NMat       2 lam      0.000000      B12    -0.018984
  NMat       1 lam      0.000000      B12    -0.182949
 UpdtCf It   0Y -77.93663136      0.00000000  0.00000000  0.00000000  0.00000000  1.00000000
 EnCoef: B12 -0.8233542D-04 lambda  0.000000
  NMat       1 lam      0.000000      B12    -0.182949
  NMat       2 lam      0.000000      B12    -0.018984
  NMat       3 lam      0.000000      B12    -0.001474
  NMat       4 lam      0.000000      B12    -0.000082
  NMat       5 lam      0.000000      B12     0.000000
 UpdtCf It   1F -77.93663136      0.00000000  0.00000000  0.00000000  0.00000000  1.00000000
  NMat       5 lam      0.000000      B12     0.000000
  NMat       4 lam      0.000000      B12    -0.000082
  NMat       3 lam      0.000000      B12    -0.001474
  NMat       2 lam      0.000000      B12    -0.018984
  NMat       1 lam      0.000000      B12    -0.182949
 UpdtCf It   1B -77.93663136      0.00000000  0.00000000  0.00000000  0.00000000  1.00000000
 Eold -77.93634703579     Efwd -77.93663136257     Ebck -77.93663136257    
 Coeff-Com:  0.918D-02-0.209D-01-0.985D-01 0.229D+00 0.881D+00
 Coeff-En:   0.000D+00 0.000D+00 0.000D+00 0.000D+00 0.100D+01
 Coeff:      0.913D-02-0.208D-01-0.980D-01 0.228D+00 0.882D+00
 NOrbs=    40 LenY=   104851370 NE2=     2621284 LScr= 7
 RMSDP=1.62D-04 MaxDP=1.35D-03 DE=-2.84D-04 OVMax= 0.00D+00

 Cycle   6  Pass 1  IDiag  1:
 One-electron energy=-0.440314216563D+03
 RMSU=  8.79D-05    CP:  9.82D-01  1.27D+00  1.11D+00  1.32D+00  1.17D+00
 FoF2E:  PMaxA= 8.38D-04S
 Calling FoFJK with Acc= 0.00D+00 ICntrl=       0.
 FoF2E:  FMaxA= 9.37D-04S
 ChkPGP:  NMat=1 NMatS=1 NMatT=0
 EA= 0.120154179381E-05  0.00000000000      0.00000000000      0.00000000000    
 EB= 0.120154179381E-05  0.00000000000      0.00000000000      0.00000000000    
 ETotA= 0.120154179381E-05 ETotB= 0.120154179381E-05
 1/2 <PG(P)>=           0.000001201542
 IMat=  1 1/2 <PG(P)>=         200.125472354807
 IMat=  1 EOne=-0.440314216563D+03 ETwo= 0.200125472355D+03 Energy=-0.240188744208D+03
 1/2 <PG(P)>=         200.125472354807
 E= -77.9366638526807     Delta-E=       -0.000032490112 Rises=F Damp=F
 DIIS: error= 1.79D-04 at cycle   6 NSaved=   6.
 B matrix at iteration          6
                 1             2             3             4             5 
      1   0.000000D+00 -0.100000D+01 -0.100000D+01 -0.100000D+01 -0.100000D+01
      2  -0.100000D+01 -0.182622D+00 -0.300211D-01 -0.134725D-01 -0.474016D-03
      3  -0.100000D+01 -0.300211D-01 -0.169943D-01 -0.922374D-03 -0.668780D-03
      4  -0.100000D+01 -0.134725D-01 -0.922374D-03 -0.177723D-02 -0.446704D-04
      5  -0.100000D+01 -0.474016D-03 -0.668780D-03 -0.446704D-04 -0.691306D-04
      6  -0.100000D+01 -0.199256D-03 -0.261828D-04 -0.747316D-04 -0.410151D-05
      7  -0.100000D+01 -0.758488D-04  0.183847D-04 -0.195705D-04 -0.159408D-05
                 6             7 
      1  -0.100000D+01 -0.100000D+01
      2  -0.199256D-03 -0.758488D-04
      3  -0.261828D-04  0.183847D-04
      4  -0.747316D-04 -0.195705D-04
      5  -0.410151D-05 -0.159408D-05
      6  -0.119691D-04 -0.249230D-05
      7  -0.249230D-05 -0.102261D-05
 Tr matrix at iteration          6
                 1             2             3             4             5 
      1  -0.779366D+02  0.000000D+00  0.000000D+00  0.000000D+00  0.000000D+00
      2   0.000000D+00 -0.198531D+02 -0.200531D+02 -0.200332D+02 -0.200247D+02
      3   0.000000D+00 -0.196256D+02 -0.198989D+02 -0.199165D+02 -0.199138D+02
      4   0.000000D+00 -0.196977D+02 -0.200085D+02 -0.200328D+02 -0.200349D+02
      5   0.000000D+00 -0.196769D+02 -0.199934D+02 -0.200225D+02 -0.200252D+02
      6   0.100000D+01 -0.196796D+02 -0.199982D+02 -0.200279D+02 -0.200309D+02
      7   0.000000D+00 -0.196794D+02 -0.199984D+02 -0.200283D+02 -0.200314D+02
                 6             7 
      1   0.000000D+00  0.000000D+00
      2  -0.200217D+02 -0.200211D+02
      3  -0.199129D+02 -0.199126D+02
      4  -0.200346D+02 -0.200345D+02
      5  -0.200253D+02 -0.200252D+02
      6  -0.200311D+02 -0.200311D+02
      7  -0.200316D+02 -0.200316D+02
 BE matrix at iteration          6
                 1             2             3             4             5 
      1   0.000000D+00 -0.100000D+01 -0.100000D+01 -0.100000D+01 -0.100000D+01
      2  -0.100000D+01  0.000000D+00 -0.734395D-01 -0.155070D+00 -0.176769D+00
      3  -0.100000D+01 -0.734395D-01  0.000000D+00 -0.673179D-02 -0.169327D-01
      4  -0.100000D+01 -0.155070D+00 -0.673179D-02  0.000000D+00 -0.598767D-03
      5  -0.100000D+01 -0.176769D+00 -0.169327D-01 -0.598767D-03  0.000000D+00
      6  -0.100000D+01 -0.182949D+00 -0.189839D-01 -0.147426D-02 -0.823354D-04
      7  -0.100000D+01 -0.184239D+00 -0.196151D-01 -0.168497D-02 -0.167326D-03
                 6             7 
      1  -0.100000D+01 -0.100000D+01
      2  -0.182949D+00 -0.184239D+00
      3  -0.189839D-01 -0.196151D-01
      4  -0.147426D-02 -0.168497D-02
      5  -0.823354D-04 -0.167326D-03
      6   0.000000D+00 -0.919292D-05
      7  -0.919292D-05  0.000000D+00
 NSaved= 6 IEnMin= 6 EnMin= -77.9366638526807     IErMin= 6 ErrMin= 1.79D-04
 ErrMax= 1.79D-04  0.00D+00 EMaxC= 1.00D-01 BMatC= 1.02D-06 BMatP= 1.20D-05
 IDIUse=3 WtCom= 9.98D-01 WtEn= 1.79D-03
 Inv2:  IOpt= 1 Iter= 1 AM= 2.36D-10 Conv= 1.00D-12.
 Inv2:  IOpt= 1 Iter= 2 AM= 7.50D-25 Conv= 1.00D-12.
  NMat       2 lam      0.000000      B12    -0.073440
  NMat       3 lam      0.000000      B12    -0.006732
  NMat       4 lam      0.000000      B12    -0.000599
  NMat       5 lam      0.000000      B12    -0.000082
  NMat       6 lam      0.000000      B12    -0.000009
 UpdtCf It   0X -77.93666385      0.00000000  0.00000000  0.00000000  0.00000000  0.00000000  1.00000000
  NMat       5 lam      0.000000      B12    -0.000009
  NMat       4 lam      0.000000      B12    -0.000167
  NMat       3 lam      0.000000      B12    -0.001685
  NMat       2 lam      0.000000      B12    -0.019615
  NMat       1 lam      0.000000      B12    -0.184239
 UpdtCf It   0Y -77.93666385      0.00000000  0.00000000  0.00000000  0.00000000  0.00000000  1.00000000
 EnCoef: B12 -0.9192922D-05 lambda  0.000000
  NMat       1 lam      0.000000      B12    -0.184239
  NMat       2 lam      0.000000      B12    -0.019615
  NMat       3 lam      0.000000      B12    -0.001685
  NMat       4 lam      0.000000      B12    -0.000167
  NMat       5 lam      0.000000      B12    -0.000009
  NMat       6 lam      0.000000      B12     0.000000
 UpdtCf It   1F -77.93666385      0.00000000  0.00000000  0.00000000  0.00000000  0.00000000  1.00000000
  NMat       6 lam      0.000000      B12     0.000000
  NMat       5 lam      0.000000      B12    -0.000009
  NMat       4 lam      0.000000      B12    -0.000167
  NMat       3 lam      0.000000      B12    -0.001685
  NMat       2 lam      0.000000      B12    -0.019615
  NMat       1 lam      0.000000      B12    -0.184239
 UpdtCf It   1B -77.93666385      0.00000000  0.00000000  0.00000000  0.00000000  0.00000000  1.00000000
 Eold -77.93663136257     Efwd -77.93666385268     Ebck -77.93666385268    
 Coeff-Com: -0.251D-02 0.901D-02 0.135D-01-0.867D-01-0.273D+00 0.134D+01
 Coeff-En:   0.000D+00 0.000D+00 0.000D+00 0.000D+00 0.000D+00 0.100D+01
 Coeff:     -0.250D-02 0.899D-02 0.135D-01-0.866D-01-0.273D+00 0.134D+01
 NOrbs=    40 LenY=   104851370 NE2=     2621284 LScr= 7
 RMSDP=9.89D-05 MaxDP=1.19D-03 DE=-3.25D-05 OVMax= 0.00D+00

 Cycle   7  Pass 1  IDiag  1:
 One-electron energy=-0.440314197545D+03
 RMSU=  3.33D-05    CP:  9.82D-01  1.27D+00  1.11D+00  1.36D+00  1.37D+00
                    CP:  1.52D+00
 FoF2E:  PMaxA= 2.42D-04S
 Calling FoFJK with Acc= 0.00D+00 ICntrl=       0.
 FoF2E:  FMaxA= 4.71D-04S
 ChkPGP:  NMat=1 NMatS=1 NMatT=0
 EA= 0.175333037328E-06  0.00000000000      0.00000000000      0.00000000000    
 EB= 0.175333037328E-06  0.00000000000      0.00000000000      0.00000000000    
 ETotA= 0.175333037328E-06 ETotB= 0.175333037328E-06
 1/2 <PG(P)>=           0.000000175333
 IMat=  1 1/2 <PG(P)>=         200.125447043654
 IMat=  1 EOne=-0.440314197545D+03 ETwo= 0.200125447044D+03 Energy=-0.240188750501D+03
 1/2 <PG(P)>=         200.125447043654
 E= -77.9366701459400     Delta-E=       -0.000006293259 Rises=F Damp=F
 DIIS: error= 6.84D-05 at cycle   7 NSaved=   7.
 B matrix at iteration          7
                 1             2             3             4             5 
      1   0.000000D+00 -0.100000D+01 -0.100000D+01 -0.100000D+01 -0.100000D+01
      2  -0.100000D+01 -0.182622D+00 -0.300211D-01 -0.134725D-01 -0.474016D-03
      3  -0.100000D+01 -0.300211D-01 -0.169943D-01 -0.922374D-03 -0.668780D-03
      4  -0.100000D+01 -0.134725D-01 -0.922374D-03 -0.177723D-02 -0.446704D-04
      5  -0.100000D+01 -0.474016D-03 -0.668780D-03 -0.446704D-04 -0.691306D-04
      6  -0.100000D+01 -0.199256D-03 -0.261828D-04 -0.747316D-04 -0.410151D-05
      7  -0.100000D+01 -0.758488D-04  0.183847D-04 -0.195705D-04 -0.159408D-05
      8  -0.100000D+01 -0.953775D-05  0.497765D-05 -0.386946D-05 -0.187904D-06
                 6             7             8 
      1  -0.100000D+01 -0.100000D+01 -0.100000D+01
      2  -0.199256D-03 -0.758488D-04 -0.953775D-05
      3  -0.261828D-04  0.183847D-04  0.497765D-05
      4  -0.747316D-04 -0.195705D-04 -0.386946D-05
      5  -0.410151D-05 -0.159408D-05 -0.187904D-06
      6  -0.119691D-04 -0.249230D-05 -0.993460D-06
      7  -0.249230D-05 -0.102261D-05 -0.303852D-06
      8  -0.993460D-06 -0.303852D-06 -0.150827D-06
 Tr matrix at iteration          7
                 1             2             3             4             5 
      1  -0.779367D+02  0.000000D+00  0.000000D+00  0.000000D+00  0.000000D+00
      2   0.000000D+00 -0.198531D+02 -0.200531D+02 -0.200332D+02 -0.200247D+02
      3   0.000000D+00 -0.196256D+02 -0.198989D+02 -0.199165D+02 -0.199138D+02
      4   0.000000D+00 -0.196977D+02 -0.200085D+02 -0.200328D+02 -0.200349D+02
      5   0.000000D+00 -0.196769D+02 -0.199934D+02 -0.200225D+02 -0.200252D+02
      6   0.000000D+00 -0.196796D+02 -0.199982D+02 -0.200279D+02 -0.200309D+02
      7   0.100000D+01 -0.196794D+02 -0.199984D+02 -0.200283D+02 -0.200314D+02
      8   0.000000D+00 -0.196793D+02 -0.199983D+02 -0.200283D+02 -0.200314D+02
                 6             7             8 
      1   0.000000D+00  0.000000D+00  0.000000D+00
      2  -0.200217D+02 -0.200211D+02 -0.200209D+02
      3  -0.199129D+02 -0.199126D+02 -0.199125D+02
      4  -0.200346D+02 -0.200345D+02 -0.200344D+02
      5  -0.200253D+02 -0.200252D+02 -0.200252D+02
      6  -0.200311D+02 -0.200311D+02 -0.200311D+02
      7  -0.200316D+02 -0.200316D+02 -0.200316D+02
      8  -0.200316D+02 -0.200316D+02 -0.200317D+02
 BE matrix at iteration          7
                 1             2             3             4             5 
      1   0.000000D+00 -0.100000D+01 -0.100000D+01 -0.100000D+01 -0.100000D+01
      2  -0.100000D+01  0.000000D+00 -0.734395D-01 -0.155070D+00 -0.176769D+00
      3  -0.100000D+01 -0.734395D-01  0.000000D+00 -0.673179D-02 -0.169327D-01
      4  -0.100000D+01 -0.155070D+00 -0.673179D-02  0.000000D+00 -0.598767D-03
      5  -0.100000D+01 -0.176769D+00 -0.169327D-01 -0.598767D-03  0.000000D+00
      6  -0.100000D+01 -0.182949D+00 -0.189839D-01 -0.147426D-02 -0.823354D-04
      7  -0.100000D+01 -0.184239D+00 -0.196151D-01 -0.168497D-02 -0.167326D-03
      8  -0.100000D+01 -0.184584D+00 -0.198362D-01 -0.178103D-02 -0.213001D-03
                 6             7             8 
      1  -0.100000D+01 -0.100000D+01 -0.100000D+01
      2  -0.182949D+00 -0.184239D+00 -0.184584D+00
      3  -0.189839D-01 -0.196151D-01 -0.198362D-01
      4  -0.147426D-02 -0.168497D-02 -0.178103D-02
      5  -0.823354D-04 -0.167326D-03 -0.213001D-03
      6   0.000000D+00 -0.919292D-05 -0.250564D-04
      7  -0.919292D-05  0.000000D+00 -0.366656D-05
      8  -0.250564D-04 -0.366656D-05  0.000000D+00
 NSaved= 7 IEnMin= 7 EnMin= -77.9366701459400     IErMin= 7 ErrMin= 6.84D-05
 ErrMax= 6.84D-05  0.00D+00 EMaxC= 1.00D-01 BMatC= 1.51D-07 BMatP= 1.02D-06
 IDIUse=1 WtCom= 1.00D+00 WtEn= 0.00D+00
 Inv2:  IOpt= 1 Iter= 1 AM= 2.46D-09 Conv= 1.00D-12.
 Inv2:  IOpt= 1 Iter= 2 AM= 1.05D-23 Conv= 1.00D-12.
 Coeff-Com: -0.106D-02 0.258D-02 0.105D-01-0.186D-01-0.137D+00-0.622D-02
 Coeff-Com:  0.115D+01
 Coeff-En:   0.000D+00 0.000D+00 0.000D+00 0.000D+00 0.000D+00 0.000D+00
 Coeff-En:   0.000D+00
 Coeff:     -0.106D-02 0.258D-02 0.105D-01-0.186D-01-0.137D+00-0.622D-02
 Coeff:      0.115D+01
 NOrbs=    40 LenY=   104851370 NE2=     2621284 LScr= 7
 RMSDP=3.55D-05 MaxDP=3.54D-04 DE=-6.29D-06 OVMax= 0.00D+00

 Cycle   8  Pass 1  IDiag  1:
 One-electron energy=-0.440314335528D+03
 RMSU=  8.18D-06    CP:  9.82D-01  1.27D+00  1.12D+00  1.37D+00  1.43D+00
                    CP:  1.75D+00  1.34D+00
 FoF2E:  PMaxA= 8.60D-05S
 Calling FoFJK with Acc= 0.00D+00 ICntrl=       0.
 FoF2E:  FMaxA= 1.00D-04S
 ChkPGP:  NMat=1 NMatS=1 NMatT=0
 EA= 0.101505270670E-07  0.00000000000      0.00000000000      0.00000000000    
 EB= 0.101505270670E-07  0.00000000000      0.00000000000      0.00000000000    
 ETotA= 0.101505270670E-07 ETotB= 0.101505270670E-07
 1/2 <PG(P)>=           0.000000010151
 IMat=  1 1/2 <PG(P)>=         200.125584330746
 IMat=  1 EOne=-0.440314335528D+03 ETwo= 0.200125584331D+03 Energy=-0.240188751197D+03
 1/2 <PG(P)>=         200.125584330746
 E= -77.9366708416745     Delta-E=       -0.000000695735 Rises=F Damp=F
 DIIS: error= 9.91D-06 at cycle   8 NSaved=   8.
 B matrix at iteration          8
                 1             2             3             4             5 
      1   0.000000D+00 -0.100000D+01 -0.100000D+01 -0.100000D+01 -0.100000D+01
      2  -0.100000D+01 -0.182622D+00 -0.300211D-01 -0.134725D-01 -0.474016D-03
      3  -0.100000D+01 -0.300211D-01 -0.169943D-01 -0.922374D-03 -0.668780D-03
      4  -0.100000D+01 -0.134725D-01 -0.922374D-03 -0.177723D-02 -0.446704D-04
      5  -0.100000D+01 -0.474016D-03 -0.668780D-03 -0.446704D-04 -0.691306D-04
      6  -0.100000D+01 -0.199256D-03 -0.261828D-04 -0.747316D-04 -0.410151D-05
      7  -0.100000D+01 -0.758488D-04  0.183847D-04 -0.195705D-04 -0.159408D-05
      8  -0.100000D+01 -0.953775D-05  0.497765D-05 -0.386946D-05 -0.187904D-06
      9  -0.100000D+01  0.193008D-05  0.128203D-06 -0.288200D-08 -0.140307D-07
                 6             7             8             9 
      1  -0.100000D+01 -0.100000D+01 -0.100000D+01 -0.100000D+01
      2  -0.199256D-03 -0.758488D-04 -0.953775D-05  0.193008D-05
      3  -0.261828D-04  0.183847D-04  0.497765D-05  0.128203D-06
      4  -0.747316D-04 -0.195705D-04 -0.386946D-05 -0.288200D-08
      5  -0.410151D-05 -0.159408D-05 -0.187904D-06 -0.140307D-07
      6  -0.119691D-04 -0.249230D-05 -0.993460D-06 -0.712765D-07
      7  -0.249230D-05 -0.102261D-05 -0.303852D-06 -0.332106D-07
      8  -0.993460D-06 -0.303852D-06 -0.150827D-06 -0.138738D-07
      9  -0.712765D-07 -0.332106D-07 -0.138738D-07 -0.523115D-08
 Tr matrix at iteration          8
                 1             2             3             4             5 
      1  -0.779367D+02  0.000000D+00  0.000000D+00  0.000000D+00  0.000000D+00
      2   0.000000D+00 -0.198531D+02 -0.200531D+02 -0.200332D+02 -0.200247D+02
      3   0.000000D+00 -0.196256D+02 -0.198989D+02 -0.199165D+02 -0.199138D+02
      4   0.000000D+00 -0.196977D+02 -0.200085D+02 -0.200328D+02 -0.200349D+02
      5   0.000000D+00 -0.196769D+02 -0.199934D+02 -0.200225D+02 -0.200252D+02
      6   0.000000D+00 -0.196796D+02 -0.199982D+02 -0.200279D+02 -0.200309D+02
      7   0.100000D+01 -0.196794D+02 -0.199984D+02 -0.200283D+02 -0.200314D+02
      8   0.000000D+00 -0.196793D+02 -0.199983D+02 -0.200283D+02 -0.200314D+02
      9   0.000000D+00 -0.196792D+02 -0.199982D+02 -0.200282D+02 -0.200313D+02
                 6             7             8             9 
      1   0.000000D+00  0.000000D+00  0.000000D+00  0.000000D+00
      2  -0.200217D+02 -0.200211D+02 -0.200209D+02 -0.200209D+02
      3  -0.199129D+02 -0.199126D+02 -0.199125D+02 -0.199124D+02
      4  -0.200346D+02 -0.200345D+02 -0.200344D+02 -0.200344D+02
      5  -0.200253D+02 -0.200252D+02 -0.200252D+02 -0.200252D+02
      6  -0.200311D+02 -0.200311D+02 -0.200311D+02 -0.200311D+02
      7  -0.200316D+02 -0.200316D+02 -0.200316D+02 -0.200316D+02
      8  -0.200316D+02 -0.200316D+02 -0.200317D+02 -0.200317D+02
      9  -0.200315D+02 -0.200316D+02 -0.200316D+02 -0.200316D+02
 BE matrix at iteration          8
                 1             2             3             4             5 
      1   0.000000D+00 -0.100000D+01 -0.100000D+01 -0.100000D+01 -0.100000D+01
      2  -0.100000D+01  0.000000D+00 -0.734395D-01 -0.155070D+00 -0.176769D+00
      3  -0.100000D+01 -0.734395D-01  0.000000D+00 -0.673179D-02 -0.169327D-01
      4  -0.100000D+01 -0.155070D+00 -0.673179D-02  0.000000D+00 -0.598767D-03
      5  -0.100000D+01 -0.176769D+00 -0.169327D-01 -0.598767D-03  0.000000D+00
      6  -0.100000D+01 -0.182949D+00 -0.189839D-01 -0.147426D-02 -0.823354D-04
      7  -0.100000D+01 -0.184239D+00 -0.196151D-01 -0.168497D-02 -0.167326D-03
      8  -0.100000D+01 -0.184584D+00 -0.198362D-01 -0.178103D-02 -0.213001D-03
      9  -0.100000D+01 -0.184665D+00 -0.198961D-01 -0.181211D-02 -0.230429D-03
                 6             7             8             9 
      1  -0.100000D+01 -0.100000D+01 -0.100000D+01 -0.100000D+01
      2  -0.182949D+00 -0.184239D+00 -0.184584D+00 -0.184665D+00
      3  -0.189839D-01 -0.196151D-01 -0.198362D-01 -0.198961D-01
      4  -0.147426D-02 -0.168497D-02 -0.178103D-02 -0.181211D-02
      5  -0.823354D-04 -0.167326D-03 -0.213001D-03 -0.230429D-03
      6   0.000000D+00 -0.919292D-05 -0.250564D-04 -0.323333D-04
      7  -0.919292D-05  0.000000D+00 -0.366656D-05 -0.700871D-05
      8  -0.250564D-04 -0.366656D-05  0.000000D+00 -0.525366D-06
      9  -0.323333D-04 -0.700871D-05 -0.525366D-06  0.000000D+00
 NSaved= 8 IEnMin= 8 EnMin= -77.9366708416745     IErMin= 8 ErrMin= 9.91D-06
 ErrMax= 9.91D-06  0.00D+00 EMaxC= 1.00D-01 BMatC= 5.23D-09 BMatP= 1.51D-07
 IDIUse=1 WtCom= 1.00D+00 WtEn= 0.00D+00
 Inv2:  IOpt= 1 Iter= 1 AM= 6.20D-08 Conv= 1.00D-12.
 Inv2:  IOpt= 1 Iter= 2 AM= 7.69D-23 Conv= 1.00D-12.
 Coeff-Com:  0.161D-03-0.546D-03-0.789D-03 0.539D-02 0.123D-01-0.644D-01
 Coeff-Com: -0.414D-01 0.109D+01
 Coeff-En:   0.000D+00 0.000D+00 0.000D+00 0.000D+00 0.000D+00 0.000D+00
 Coeff-En:   0.000D+00 0.000D+00
 Coeff:      0.161D-03-0.546D-03-0.789D-03 0.539D-02 0.123D-01-0.644D-01
 Coeff:     -0.414D-01 0.109D+01
 NOrbs=    40 LenY=   104851370 NE2=     2621284 LScr= 7
 RMSDP=7.53D-06 MaxDP=8.78D-05 DE=-6.96D-07 OVMax= 0.00D+00

 Cycle   9  Pass 1  IDiag  1:
 One-electron energy=-0.440314320045D+03
 RMSU=  2.86D-06    CP:  9.82D-01  1.27D+00  1.12D+00  1.37D+00  1.44D+00
                    CP:  1.78D+00  1.47D+00  1.24D+00
 FoF2E:  PMaxA= 2.73D-05S
 Calling FoFJK with Acc= 0.00D+00 ICntrl=       0.
 FoF2E:  FMaxA= 3.49D-05S
 ChkPGP:  NMat=1 NMatS=1 NMatT=0
 EA= 0.740573751086E-09  0.00000000000      0.00000000000      0.00000000000    
 EB= 0.740573751086E-09  0.00000000000      0.00000000000      0.00000000000    
 ETotA= 0.740573751086E-09 ETotB= 0.740573751086E-09
 1/2 <PG(P)>=           0.000000000741
 IMat=  1 1/2 <PG(P)>=         200.125568814767
 IMat=  1 EOne=-0.440314320045D+03 ETwo= 0.200125568815D+03 Energy=-0.240188751231D+03
 1/2 <PG(P)>=         200.125568814767
 E= -77.9366708751683     Delta-E=       -0.000000033494 Rises=F Damp=F
 DIIS: error= 4.71D-06 at cycle   9 NSaved=   9.
 B matrix at iteration          9
                 1             2             3             4             5 
      1   0.000000D+00 -0.100000D+01 -0.100000D+01 -0.100000D+01 -0.100000D+01
      2  -0.100000D+01 -0.182622D+00 -0.300211D-01 -0.134725D-01 -0.474016D-03
      3  -0.100000D+01 -0.300211D-01 -0.169943D-01 -0.922374D-03 -0.668780D-03
      4  -0.100000D+01 -0.134725D-01 -0.922374D-03 -0.177723D-02 -0.446704D-04
      5  -0.100000D+01 -0.474016D-03 -0.668780D-03 -0.446704D-04 -0.691306D-04
      6  -0.100000D+01 -0.199256D-03 -0.261828D-04 -0.747316D-04 -0.410151D-05
      7  -0.100000D+01 -0.758488D-04  0.183847D-04 -0.195705D-04 -0.159408D-05
      8  -0.100000D+01 -0.953775D-05  0.497765D-05 -0.386946D-05 -0.187904D-06
      9  -0.100000D+01  0.193008D-05  0.128203D-06 -0.288200D-08 -0.140307D-07
     10  -0.100000D+01  0.529138D-07 -0.247339D-06  0.143863D-08 -0.595352D-08
                 6             7             8             9            10 
      1  -0.100000D+01 -0.100000D+01 -0.100000D+01 -0.100000D+01 -0.100000D+01
      2  -0.199256D-03 -0.758488D-04 -0.953775D-05  0.193008D-05  0.529138D-07
      3  -0.261828D-04  0.183847D-04  0.497765D-05  0.128203D-06 -0.247339D-06
      4  -0.747316D-04 -0.195705D-04 -0.386946D-05 -0.288200D-08  0.143863D-08
      5  -0.410151D-05 -0.159408D-05 -0.187904D-06 -0.140307D-07 -0.595352D-08
      6  -0.119691D-04 -0.249230D-05 -0.993460D-06 -0.712765D-07 -0.286231D-07
      7  -0.249230D-05 -0.102261D-05 -0.303852D-06 -0.332106D-07 -0.681527D-08
      8  -0.993460D-06 -0.303852D-06 -0.150827D-06 -0.138738D-07 -0.739421D-08
      9  -0.712765D-07 -0.332106D-07 -0.138738D-07 -0.523115D-08 -0.124163D-08
     10  -0.286231D-07 -0.681527D-08 -0.739421D-08 -0.124163D-08 -0.999979D-09
 Tr matrix at iteration          9
                 1             2             3             4             5 
      1  -0.779367D+02  0.000000D+00  0.000000D+00  0.000000D+00  0.000000D+00
      2   0.000000D+00 -0.198531D+02 -0.200531D+02 -0.200332D+02 -0.200247D+02
      3   0.000000D+00 -0.196256D+02 -0.198989D+02 -0.199165D+02 -0.199138D+02
      4   0.000000D+00 -0.196977D+02 -0.200085D+02 -0.200328D+02 -0.200349D+02
      5   0.000000D+00 -0.196769D+02 -0.199934D+02 -0.200225D+02 -0.200252D+02
      6   0.000000D+00 -0.196796D+02 -0.199982D+02 -0.200279D+02 -0.200309D+02
      7   0.100000D+01 -0.196794D+02 -0.199984D+02 -0.200283D+02 -0.200314D+02
      8   0.000000D+00 -0.196793D+02 -0.199983D+02 -0.200283D+02 -0.200314D+02
      9   0.000000D+00 -0.196792D+02 -0.199982D+02 -0.200282D+02 -0.200313D+02
     10   0.000000D+00 -0.196792D+02 -0.199982D+02 -0.200282D+02 -0.200313D+02
                 6             7             8             9            10 
      1   0.000000D+00  0.000000D+00  0.000000D+00  0.000000D+00  0.000000D+00
      2  -0.200217D+02 -0.200211D+02 -0.200209D+02 -0.200209D+02 -0.200209D+02
      3  -0.199129D+02 -0.199126D+02 -0.199125D+02 -0.199124D+02 -0.199124D+02
      4  -0.200346D+02 -0.200345D+02 -0.200344D+02 -0.200344D+02 -0.200344D+02
      5  -0.200253D+02 -0.200252D+02 -0.200252D+02 -0.200252D+02 -0.200252D+02
      6  -0.200311D+02 -0.200311D+02 -0.200311D+02 -0.200311D+02 -0.200311D+02
      7  -0.200316D+02 -0.200316D+02 -0.200316D+02 -0.200316D+02 -0.200316D+02
      8  -0.200316D+02 -0.200316D+02 -0.200317D+02 -0.200317D+02 -0.200317D+02
      9  -0.200315D+02 -0.200316D+02 -0.200316D+02 -0.200316D+02 -0.200316D+02
     10  -0.200316D+02 -0.200316D+02 -0.200316D+02 -0.200316D+02 -0.200316D+02
 BE matrix at iteration          9
                 1             2             3             4             5 
      1   0.000000D+00 -0.100000D+01 -0.100000D+01 -0.100000D+01 -0.100000D+01
      2  -0.100000D+01  0.000000D+00 -0.734395D-01 -0.155070D+00 -0.176769D+00
      3  -0.100000D+01 -0.734395D-01  0.000000D+00 -0.673179D-02 -0.169327D-01
      4  -0.100000D+01 -0.155070D+00 -0.673179D-02  0.000000D+00 -0.598767D-03
      5  -0.100000D+01 -0.176769D+00 -0.169327D-01 -0.598767D-03  0.000000D+00
      6  -0.100000D+01 -0.182949D+00 -0.189839D-01 -0.147426D-02 -0.823354D-04
      7  -0.100000D+01 -0.184239D+00 -0.196151D-01 -0.168497D-02 -0.167326D-03
      8  -0.100000D+01 -0.184584D+00 -0.198362D-01 -0.178103D-02 -0.213001D-03
      9  -0.100000D+01 -0.184665D+00 -0.198961D-01 -0.181211D-02 -0.230429D-03
     10  -0.100000D+01 -0.184671D+00 -0.199013D-01 -0.181597D-02 -0.232775D-03
                 6             7             8             9            10 
      1  -0.100000D+01 -0.100000D+01 -0.100000D+01 -0.100000D+01 -0.100000D+01
      2  -0.182949D+00 -0.184239D+00 -0.184584D+00 -0.184665D+00 -0.184671D+00
      3  -0.189839D-01 -0.196151D-01 -0.198362D-01 -0.198961D-01 -0.199013D-01
      4  -0.147426D-02 -0.168497D-02 -0.178103D-02 -0.181211D-02 -0.181597D-02
      5  -0.823354D-04 -0.167326D-03 -0.213001D-03 -0.230429D-03 -0.232775D-03
      6   0.000000D+00 -0.919292D-05 -0.250564D-04 -0.323333D-04 -0.335716D-04
      7  -0.919292D-05  0.000000D+00 -0.366656D-05 -0.700871D-05 -0.764673D-05
      8  -0.250564D-04 -0.366656D-05  0.000000D+00 -0.525366D-06 -0.736636D-06
      9  -0.323333D-04 -0.700871D-05 -0.525366D-06  0.000000D+00 -0.189925D-07
     10  -0.335716D-04 -0.764673D-05 -0.736636D-06 -0.189925D-07  0.000000D+00
 NSaved= 9 IEnMin= 9 EnMin= -77.9366708751683     IErMin= 9 ErrMin= 4.71D-06
 ErrMax= 4.71D-06  0.00D+00 EMaxC= 1.00D-01 BMatC= 1.00D-09 BMatP= 5.23D-09
 IDIUse=1 WtCom= 1.00D+00 WtEn= 0.00D+00
 Inv2:  IOpt= 1 Iter= 1 AM= 1.63D-07 Conv= 1.00D-12.
 Inv2:  IOpt= 1 Iter= 2 AM= 4.27D-22 Conv= 1.00D-12.
 Coeff-Com:  0.650D-04-0.170D-03-0.655D-03 0.106D-02 0.780D-02 0.157D-01
 Coeff-Com: -0.127D+00-0.375D-01 0.114D+01
 Coeff-En:   0.000D+00 0.000D+00 0.000D+00 0.000D+00 0.000D+00 0.000D+00
 Coeff-En:   0.000D+00 0.000D+00 0.000D+00
 Coeff:      0.650D-04-0.170D-03-0.655D-03 0.106D-02 0.780D-02 0.157D-01
 Coeff:     -0.127D+00-0.375D-01 0.114D+01
 NOrbs=    40 LenY=   104851370 NE2=     2621284 LScr= 7
 RMSDP=2.51D-06 MaxDP=2.28D-05 DE=-3.35D-08 OVMax= 0.00D+00

 Cycle  10  Pass 1  IDiag  1:
 One-electron energy=-0.440314339512D+03
 RMSU=  7.38D-07    CP:  9.82D-01  1.27D+00  1.12D+00  1.37D+00  1.45D+00
                    CP:  1.79D+00  1.51D+00  1.42D+00  1.35D+00
 FoF2E:  PMaxA= 7.48D-06S
 Calling FoFJK with Acc= 0.00D+00 ICntrl=       0.
 FoF2E:  FMaxA= 7.77D-06S
 ChkPGP:  NMat=1 NMatS=1 NMatT=0
 EA= 0.847558168194E-10  0.00000000000      0.00000000000      0.00000000000    
 EB= 0.847558168194E-10  0.00000000000      0.00000000000      0.00000000000    
 ETotA= 0.847558168194E-10 ETotB= 0.847558168194E-10
 1/2 <PG(P)>=           0.000000000085
 IMat=  1 1/2 <PG(P)>=         200.125588277455
 IMat=  1 EOne=-0.440314339512D+03 ETwo= 0.200125588277D+03 Energy=-0.240188751235D+03
 1/2 <PG(P)>=         200.125588277455
 E= -77.9366708793851     Delta-E=       -0.000000004217 Rises=F Damp=F
 DIIS: error= 1.18D-06 at cycle  10 NSaved=  10.
 B matrix at iteration         10
                 1             2             3             4             5 
      1   0.000000D+00 -0.100000D+01 -0.100000D+01 -0.100000D+01 -0.100000D+01
      2  -0.100000D+01 -0.182622D+00 -0.300211D-01 -0.134725D-01 -0.474016D-03
      3  -0.100000D+01 -0.300211D-01 -0.169943D-01 -0.922374D-03 -0.668780D-03
      4  -0.100000D+01 -0.134725D-01 -0.922374D-03 -0.177723D-02 -0.446704D-04
      5  -0.100000D+01 -0.474016D-03 -0.668780D-03 -0.446704D-04 -0.691306D-04
      6  -0.100000D+01 -0.199256D-03 -0.261828D-04 -0.747316D-04 -0.410151D-05
      7  -0.100000D+01 -0.758488D-04  0.183847D-04 -0.195705D-04 -0.159408D-05
      8  -0.100000D+01 -0.953775D-05  0.497765D-05 -0.386946D-05 -0.187904D-06
      9  -0.100000D+01  0.193008D-05  0.128203D-06 -0.288200D-08 -0.140307D-07
     10  -0.100000D+01  0.529138D-07 -0.247339D-06  0.143863D-08 -0.595352D-08
     11  -0.100000D+01  0.295188D-06 -0.136776D-06  0.586781D-07  0.176815D-08
                 6             7             8             9            10 
      1  -0.100000D+01 -0.100000D+01 -0.100000D+01 -0.100000D+01 -0.100000D+01
      2  -0.199256D-03 -0.758488D-04 -0.953775D-05  0.193008D-05  0.529138D-07
      3  -0.261828D-04  0.183847D-04  0.497765D-05  0.128203D-06 -0.247339D-06
      4  -0.747316D-04 -0.195705D-04 -0.386946D-05 -0.288200D-08  0.143863D-08
      5  -0.410151D-05 -0.159408D-05 -0.187904D-06 -0.140307D-07 -0.595352D-08
      6  -0.119691D-04 -0.249230D-05 -0.993460D-06 -0.712765D-07 -0.286231D-07
      7  -0.249230D-05 -0.102261D-05 -0.303852D-06 -0.332106D-07 -0.681527D-08
      8  -0.993460D-06 -0.303852D-06 -0.150827D-06 -0.138738D-07 -0.739421D-08
      9  -0.712765D-07 -0.332106D-07 -0.138738D-07 -0.523115D-08 -0.124163D-08
     10  -0.286231D-07 -0.681527D-08 -0.739421D-08 -0.124163D-08 -0.999979D-09
     11  -0.873966D-09  0.104015D-08 -0.549082D-09 -0.337980D-09 -0.147510D-09
                11 
      1  -0.100000D+01
      2   0.295188D-06
      3  -0.136776D-06
      4   0.586781D-07
      5   0.176815D-08
      6  -0.873966D-09
      7   0.104015D-08
      8  -0.549082D-09
      9  -0.337980D-09
     10  -0.147510D-09
     11  -0.733971D-10
 Tr matrix at iteration         10
                 1             2             3             4             5 
      1  -0.779367D+02  0.000000D+00  0.000000D+00  0.000000D+00  0.000000D+00
      2   0.000000D+00 -0.198531D+02 -0.200531D+02 -0.200332D+02 -0.200247D+02
      3   0.000000D+00 -0.196256D+02 -0.198989D+02 -0.199165D+02 -0.199138D+02
      4   0.000000D+00 -0.196977D+02 -0.200085D+02 -0.200328D+02 -0.200349D+02
      5   0.000000D+00 -0.196769D+02 -0.199934D+02 -0.200225D+02 -0.200252D+02
      6   0.000000D+00 -0.196796D+02 -0.199982D+02 -0.200279D+02 -0.200309D+02
      7   0.100000D+01 -0.196794D+02 -0.199984D+02 -0.200283D+02 -0.200314D+02
      8   0.000000D+00 -0.196793D+02 -0.199983D+02 -0.200283D+02 -0.200314D+02
      9   0.000000D+00 -0.196792D+02 -0.199982D+02 -0.200282D+02 -0.200313D+02
     10   0.000000D+00 -0.196792D+02 -0.199982D+02 -0.200282D+02 -0.200313D+02
     11   0.000000D+00 -0.196792D+02 -0.199982D+02 -0.200282D+02 -0.200313D+02
                 6             7             8             9            10 
      1   0.000000D+00  0.000000D+00  0.000000D+00  0.000000D+00  0.000000D+00
      2  -0.200217D+02 -0.200211D+02 -0.200209D+02 -0.200209D+02 -0.200209D+02
      3  -0.199129D+02 -0.199126D+02 -0.199125D+02 -0.199124D+02 -0.199124D+02
      4  -0.200346D+02 -0.200345D+02 -0.200344D+02 -0.200344D+02 -0.200344D+02
      5  -0.200253D+02 -0.200252D+02 -0.200252D+02 -0.200252D+02 -0.200252D+02
      6  -0.200311D+02 -0.200311D+02 -0.200311D+02 -0.200311D+02 -0.200311D+02
      7  -0.200316D+02 -0.200316D+02 -0.200316D+02 -0.200316D+02 -0.200316D+02
      8  -0.200316D+02 -0.200316D+02 -0.200317D+02 -0.200317D+02 -0.200317D+02
      9  -0.200315D+02 -0.200316D+02 -0.200316D+02 -0.200316D+02 -0.200316D+02
     10  -0.200316D+02 -0.200316D+02 -0.200316D+02 -0.200316D+02 -0.200316D+02
     11  -0.200315D+02 -0.200316D+02 -0.200316D+02 -0.200316D+02 -0.200316D+02
                11 
      1   0.000000D+00
      2  -0.200209D+02
      3  -0.199124D+02
      4  -0.200344D+02
      5  -0.200252D+02
      6  -0.200311D+02
      7  -0.200316D+02
      8  -0.200317D+02
      9  -0.200316D+02
     10  -0.200316D+02
     11  -0.200316D+02
 BE matrix at iteration         10
                 1             2             3             4             5 
      1   0.000000D+00 -0.100000D+01 -0.100000D+01 -0.100000D+01 -0.100000D+01
      2  -0.100000D+01  0.000000D+00 -0.734395D-01 -0.155070D+00 -0.176769D+00
      3  -0.100000D+01 -0.734395D-01  0.000000D+00 -0.673179D-02 -0.169327D-01
      4  -0.100000D+01 -0.155070D+00 -0.673179D-02  0.000000D+00 -0.598767D-03
      5  -0.100000D+01 -0.176769D+00 -0.169327D-01 -0.598767D-03  0.000000D+00
      6  -0.100000D+01 -0.182949D+00 -0.189839D-01 -0.147426D-02 -0.823354D-04
      7  -0.100000D+01 -0.184239D+00 -0.196151D-01 -0.168497D-02 -0.167326D-03
      8  -0.100000D+01 -0.184584D+00 -0.198362D-01 -0.178103D-02 -0.213001D-03
      9  -0.100000D+01 -0.184665D+00 -0.198961D-01 -0.181211D-02 -0.230429D-03
     10  -0.100000D+01 -0.184671D+00 -0.199013D-01 -0.181597D-02 -0.232775D-03
     11  -0.100000D+01 -0.184673D+00 -0.199024D-01 -0.181678D-02 -0.233322D-03
                 6             7             8             9            10 
      1  -0.100000D+01 -0.100000D+01 -0.100000D+01 -0.100000D+01 -0.100000D+01
      2  -0.182949D+00 -0.184239D+00 -0.184584D+00 -0.184665D+00 -0.184671D+00
      3  -0.189839D-01 -0.196151D-01 -0.198362D-01 -0.198961D-01 -0.199013D-01
      4  -0.147426D-02 -0.168497D-02 -0.178103D-02 -0.181211D-02 -0.181597D-02
      5  -0.823354D-04 -0.167326D-03 -0.213001D-03 -0.230429D-03 -0.232775D-03
      6   0.000000D+00 -0.919292D-05 -0.250564D-04 -0.323333D-04 -0.335716D-04
      7  -0.919292D-05  0.000000D+00 -0.366656D-05 -0.700871D-05 -0.764673D-05
      8  -0.250564D-04 -0.366656D-05  0.000000D+00 -0.525366D-06 -0.736636D-06
      9  -0.323333D-04 -0.700871D-05 -0.525366D-06  0.000000D+00 -0.189925D-07
     10  -0.335716D-04 -0.764673D-05 -0.736636D-06 -0.189925D-07  0.000000D+00
     11  -0.338710D-04 -0.782400D-05 -0.802528D-06 -0.355435D-07 -0.249172D-08
                11 
      1  -0.100000D+01
      2  -0.184673D+00
      3  -0.199024D-01
      4  -0.181678D-02
      5  -0.233322D-03
      6  -0.338710D-04
      7  -0.782400D-05
      8  -0.802528D-06
      9  -0.355435D-07
     10  -0.249172D-08
     11   0.000000D+00
 NSaved=10 IEnMin=10 EnMin= -77.9366708793851     IErMin=10 ErrMin= 1.18D-06
 ErrMax= 1.18D-06  0.00D+00 EMaxC= 1.00D-01 BMatC= 7.34D-11 BMatP= 1.00D-09
 IDIUse=1 WtCom= 1.00D+00 WtEn= 0.00D+00
 Inv2:  IOpt= 1 Iter= 1 AM= 1.91D-06 Conv= 1.00D-12.
 Inv2:  IOpt= 1 Iter= 2 AM= 1.70D-21 Conv= 1.00D-12.
 Coeff-Com: -0.801D-05 0.217D-04 0.494D-04-0.271D-03-0.954D-03 0.893D-02
 Coeff-Com: -0.703D-02-0.908D-01 0.582D-02 0.108D+01
 Coeff-En:   0.000D+00 0.000D+00 0.000D+00 0.000D+00 0.000D+00 0.000D+00
 Coeff-En:   0.000D+00 0.000D+00 0.000D+00 0.000D+00
 Coeff:     -0.801D-05 0.217D-04 0.494D-04-0.271D-03-0.954D-03 0.893D-02
 Coeff:     -0.703D-02-0.908D-01 0.582D-02 0.108D+01
 NOrbs=    40 LenY=   104851370 NE2=     2621284 LScr= 7
 RMSDP=7.86D-07 MaxDP=7.97D-06 DE=-4.22D-09 OVMax= 0.00D+00

 Cycle  11  Pass 1  IDiag  1:
 One-electron energy=-0.440314341840D+03
 RMSU=  2.86D-07    CP:  9.82D-01  1.27D+00  1.12D+00  1.37D+00  1.45D+00
                    CP:  1.79D+00  1.52D+00  1.46D+00  1.53D+00  1.19D+00
 FoF2E:  PMaxA= 3.01D-06S
 Calling FoFJK with Acc= 0.00D+00 ICntrl=       0.
 FoF2E:  FMaxA= 2.83D-06S
 ChkPGP:  NMat=1 NMatS=1 NMatT=0
 EA=-0.215142825819E-11  0.00000000000      0.00000000000      0.00000000000    
 EB=-0.215142825819E-11  0.00000000000      0.00000000000      0.00000000000    
 ETotA=-0.215142825819E-11 ETotB=-0.215142825819E-11
 1/2 <PG(P)>=          -0.000000000002
 IMat=  1 1/2 <PG(P)>=         200.125590604410
 IMat=  1 EOne=-0.440314341840D+03 ETwo= 0.200125590604D+03 Energy=-0.240188751235D+03
 1/2 <PG(P)>=         200.125590604410
 E= -77.9366708797713     Delta-E=       -0.000000000386 Rises=F Damp=F
 DIIS: error= 5.59D-07 at cycle  11 NSaved=  11.
 B matrix at iteration         11
                 1             2             3             4             5 
      1   0.000000D+00 -0.100000D+01 -0.100000D+01 -0.100000D+01 -0.100000D+01
      2  -0.100000D+01 -0.182622D+00 -0.300211D-01 -0.134725D-01 -0.474016D-03
      3  -0.100000D+01 -0.300211D-01 -0.169943D-01 -0.922374D-03 -0.668780D-03
      4  -0.100000D+01 -0.134725D-01 -0.922374D-03 -0.177723D-02 -0.446704D-04
      5  -0.100000D+01 -0.474016D-03 -0.668780D-03 -0.446704D-04 -0.691306D-04
      6  -0.100000D+01 -0.199256D-03 -0.261828D-04 -0.747316D-04 -0.410151D-05
      7  -0.100000D+01 -0.758488D-04  0.183847D-04 -0.195705D-04 -0.159408D-05
      8  -0.100000D+01 -0.953775D-05  0.497765D-05 -0.386946D-05 -0.187904D-06
      9  -0.100000D+01  0.193008D-05  0.128203D-06 -0.288200D-08 -0.140307D-07
     10  -0.100000D+01  0.529138D-07 -0.247339D-06  0.143863D-08 -0.595352D-08
     11  -0.100000D+01  0.295188D-06 -0.136776D-06  0.586781D-07  0.176815D-08
     12  -0.100000D+01  0.145142D-06 -0.587452D-07  0.184200D-07 -0.433940D-08
                 6             7             8             9            10 
      1  -0.100000D+01 -0.100000D+01 -0.100000D+01 -0.100000D+01 -0.100000D+01
      2  -0.199256D-03 -0.758488D-04 -0.953775D-05  0.193008D-05  0.529138D-07
      3  -0.261828D-04  0.183847D-04  0.497765D-05  0.128203D-06 -0.247339D-06
      4  -0.747316D-04 -0.195705D-04 -0.386946D-05 -0.288200D-08  0.143863D-08
      5  -0.410151D-05 -0.159408D-05 -0.187904D-06 -0.140307D-07 -0.595352D-08
      6  -0.119691D-04 -0.249230D-05 -0.993460D-06 -0.712765D-07 -0.286231D-07
      7  -0.249230D-05 -0.102261D-05 -0.303852D-06 -0.332106D-07 -0.681527D-08
      8  -0.993460D-06 -0.303852D-06 -0.150827D-06 -0.138738D-07 -0.739421D-08
      9  -0.712765D-07 -0.332106D-07 -0.138738D-07 -0.523115D-08 -0.124163D-08
     10  -0.286231D-07 -0.681527D-08 -0.739421D-08 -0.124163D-08 -0.999979D-09
     11  -0.873966D-09  0.104015D-08 -0.549082D-09 -0.337980D-09 -0.147510D-09
     12  -0.926453D-09 -0.865128D-10 -0.174154D-09 -0.514346D-10 -0.635229D-10
                11            12 
      1  -0.100000D+01 -0.100000D+01
      2   0.295188D-06  0.145142D-06
      3  -0.136776D-06 -0.587452D-07
      4   0.586781D-07  0.184200D-07
      5   0.176815D-08 -0.433940D-08
      6  -0.873966D-09 -0.926453D-09
      7   0.104015D-08 -0.865128D-10
      8  -0.549082D-09 -0.174154D-09
      9  -0.337980D-09 -0.514346D-10
     10  -0.147510D-09 -0.635229D-10
     11  -0.733971D-10 -0.112622D-10
     12  -0.112622D-10 -0.970575D-11
 Tr matrix at iteration         11
                 1             2             3             4             5 
      1  -0.779367D+02  0.000000D+00  0.000000D+00  0.000000D+00  0.000000D+00
      2   0.000000D+00 -0.198531D+02 -0.200531D+02 -0.200332D+02 -0.200247D+02
      3   0.000000D+00 -0.196256D+02 -0.198989D+02 -0.199165D+02 -0.199138D+02
      4   0.000000D+00 -0.196977D+02 -0.200085D+02 -0.200328D+02 -0.200349D+02
      5   0.000000D+00 -0.196769D+02 -0.199934D+02 -0.200225D+02 -0.200252D+02
      6   0.000000D+00 -0.196796D+02 -0.199982D+02 -0.200279D+02 -0.200309D+02
      7   0.100000D+01 -0.196794D+02 -0.199984D+02 -0.200283D+02 -0.200314D+02
      8   0.000000D+00 -0.196793D+02 -0.199983D+02 -0.200283D+02 -0.200314D+02
      9   0.000000D+00 -0.196792D+02 -0.199982D+02 -0.200282D+02 -0.200313D+02
     10   0.000000D+00 -0.196792D+02 -0.199982D+02 -0.200282D+02 -0.200313D+02
     11   0.000000D+00 -0.196792D+02 -0.199982D+02 -0.200282D+02 -0.200313D+02
     12   0.000000D+00 -0.196792D+02 -0.199982D+02 -0.200282D+02 -0.200313D+02
                 6             7             8             9            10 
      1   0.000000D+00  0.000000D+00  0.000000D+00  0.000000D+00  0.000000D+00
      2  -0.200217D+02 -0.200211D+02 -0.200209D+02 -0.200209D+02 -0.200209D+02
      3  -0.199129D+02 -0.199126D+02 -0.199125D+02 -0.199124D+02 -0.199124D+02
      4  -0.200346D+02 -0.200345D+02 -0.200344D+02 -0.200344D+02 -0.200344D+02
      5  -0.200253D+02 -0.200252D+02 -0.200252D+02 -0.200252D+02 -0.200252D+02
      6  -0.200311D+02 -0.200311D+02 -0.200311D+02 -0.200311D+02 -0.200311D+02
      7  -0.200316D+02 -0.200316D+02 -0.200316D+02 -0.200316D+02 -0.200316D+02
      8  -0.200316D+02 -0.200316D+02 -0.200317D+02 -0.200317D+02 -0.200317D+02
      9  -0.200315D+02 -0.200316D+02 -0.200316D+02 -0.200316D+02 -0.200316D+02
     10  -0.200316D+02 -0.200316D+02 -0.200316D+02 -0.200316D+02 -0.200316D+02
     11  -0.200315D+02 -0.200316D+02 -0.200316D+02 -0.200316D+02 -0.200316D+02
     12  -0.200315D+02 -0.200316D+02 -0.200316D+02 -0.200316D+02 -0.200316D+02
                11            12 
      1   0.000000D+00  0.000000D+00
      2  -0.200209D+02 -0.200209D+02
      3  -0.199124D+02 -0.199124D+02
      4  -0.200344D+02 -0.200344D+02
      5  -0.200252D+02 -0.200252D+02
      6  -0.200311D+02 -0.200311D+02
      7  -0.200316D+02 -0.200316D+02
      8  -0.200317D+02 -0.200317D+02
      9  -0.200316D+02 -0.200316D+02
     10  -0.200316D+02 -0.200316D+02
     11  -0.200316D+02 -0.200316D+02
     12  -0.200316D+02 -0.200316D+02
 BE matrix at iteration         11
                 1             2             3             4             5 
      1   0.000000D+00 -0.100000D+01 -0.100000D+01 -0.100000D+01 -0.100000D+01
      2  -0.100000D+01  0.000000D+00 -0.734395D-01 -0.155070D+00 -0.176769D+00
      3  -0.100000D+01 -0.734395D-01  0.000000D+00 -0.673179D-02 -0.169327D-01
      4  -0.100000D+01 -0.155070D+00 -0.673179D-02  0.000000D+00 -0.598767D-03
      5  -0.100000D+01 -0.176769D+00 -0.169327D-01 -0.598767D-03  0.000000D+00
      6  -0.100000D+01 -0.182949D+00 -0.189839D-01 -0.147426D-02 -0.823354D-04
      7  -0.100000D+01 -0.184239D+00 -0.196151D-01 -0.168497D-02 -0.167326D-03
      8  -0.100000D+01 -0.184584D+00 -0.198362D-01 -0.178103D-02 -0.213001D-03
      9  -0.100000D+01 -0.184665D+00 -0.198961D-01 -0.181211D-02 -0.230429D-03
     10  -0.100000D+01 -0.184671D+00 -0.199013D-01 -0.181597D-02 -0.232775D-03
     11  -0.100000D+01 -0.184673D+00 -0.199024D-01 -0.181678D-02 -0.233322D-03
     12  -0.100000D+01 -0.184672D+00 -0.199022D-01 -0.181671D-02 -0.233326D-03
                 6             7             8             9            10 
      1  -0.100000D+01 -0.100000D+01 -0.100000D+01 -0.100000D+01 -0.100000D+01
      2  -0.182949D+00 -0.184239D+00 -0.184584D+00 -0.184665D+00 -0.184671D+00
      3  -0.189839D-01 -0.196151D-01 -0.198362D-01 -0.198961D-01 -0.199013D-01
      4  -0.147426D-02 -0.168497D-02 -0.178103D-02 -0.181211D-02 -0.181597D-02
      5  -0.823354D-04 -0.167326D-03 -0.213001D-03 -0.230429D-03 -0.232775D-03
      6   0.000000D+00 -0.919292D-05 -0.250564D-04 -0.323333D-04 -0.335716D-04
      7  -0.919292D-05  0.000000D+00 -0.366656D-05 -0.700871D-05 -0.764673D-05
      8  -0.250564D-04 -0.366656D-05  0.000000D+00 -0.525366D-06 -0.736636D-06
      9  -0.323333D-04 -0.700871D-05 -0.525366D-06  0.000000D+00 -0.189925D-07
     10  -0.335716D-04 -0.764673D-05 -0.736636D-06 -0.189925D-07  0.000000D+00
     11  -0.338710D-04 -0.782400D-05 -0.802528D-06 -0.355435D-07 -0.249172D-08
     12  -0.338877D-04 -0.784147D-05 -0.812520D-06 -0.396399D-07 -0.407716D-08
                11            12 
      1  -0.100000D+01 -0.100000D+01
      2  -0.184673D+00 -0.184672D+00
      3  -0.199024D-01 -0.199022D-01
      4  -0.181678D-02 -0.181671D-02
      5  -0.233322D-03 -0.233326D-03
      6  -0.338710D-04 -0.338877D-04
      7  -0.782400D-05 -0.784147D-05
      8  -0.802528D-06 -0.812520D-06
      9  -0.355435D-07 -0.396399D-07
     10  -0.249172D-08 -0.407716D-08
     11   0.000000D+00 -0.205585D-09
     12  -0.205585D-09  0.000000D+00
 NSaved=11 IEnMin=11 EnMin= -77.9366708797713     IErMin=11 ErrMin= 5.59D-07
 ErrMax= 5.59D-07  0.00D+00 EMaxC= 1.00D-01 BMatC= 9.71D-12 BMatP= 7.34D-11
 IDIUse=1 WtCom= 1.00D+00 WtEn= 0.00D+00
 Inv2:  IOpt= 1 Iter= 1 AM= 5.08D-05 Conv= 1.00D-12.
 Inv2:  IOpt= 1 Iter= 2 AM= 2.08D-19 Conv= 1.00D-12.
 Coeff-Com: -0.597D-05 0.123D-04 0.890D-04-0.122D-03-0.988D-03-0.247D-02
 Coeff-Com:  0.153D-01 0.136D-01-0.156D+00-0.224D-02 0.113D+01
 Coeff-En:   0.000D+00 0.000D+00 0.000D+00 0.000D+00 0.000D+00 0.000D+00
 Coeff-En:   0.000D+00 0.000D+00 0.000D+00 0.000D+00 0.000D+00
 Coeff:     -0.597D-05 0.123D-04 0.890D-04-0.122D-03-0.988D-03-0.247D-02
 Coeff:      0.153D-01 0.136D-01-0.156D+00-0.224D-02 0.113D+01
 NOrbs=    40 LenY=   104851370 NE2=     2621284 LScr= 7
 RMSDP=2.69D-07 MaxDP=2.80D-06 DE=-3.86D-10 OVMax= 0.00D+00

 Cycle  12  Pass 1  IDiag  1:
 One-electron energy=-0.440314341579D+03
 RMSU=  7.89D-08    CP:  9.82D-01  1.27D+00  1.12D+00  1.37D+00  1.45D+00
                    CP:  1.79D+00  1.52D+00  1.48D+00  1.58D+00  1.37D+00
                    CP:  1.38D+00
 FoF2E:  PMaxA= 7.24D-07S
 Calling FoFJK with Acc= 0.00D+00 ICntrl=       0.
 FoF2E:  FMaxA= 6.61D-07S
 ChkPGP:  NMat=1 NMatS=1 NMatT=0
 EA= 0.561738422650E-12  0.00000000000      0.00000000000      0.00000000000    
 EB= 0.561738422650E-12  0.00000000000      0.00000000000      0.00000000000    
 ETotA= 0.561738422650E-12 ETotB= 0.561738422650E-12
 1/2 <PG(P)>=           0.000000000001
 IMat=  1 1/2 <PG(P)>=         200.125590343832
 IMat=  1 EOne=-0.440314341579D+03 ETwo= 0.200125590344D+03 Energy=-0.240188751235D+03
 1/2 <PG(P)>=         200.125590343832
 E= -77.9366708798129     Delta-E=       -0.000000000042 Rises=F Damp=F
 DIIS: error= 1.08D-07 at cycle  12 NSaved=  12.
 B matrix at iteration         12
                 1             2             3             4             5 
      1   0.000000D+00 -0.100000D+01 -0.100000D+01 -0.100000D+01 -0.100000D+01
      2  -0.100000D+01 -0.182622D+00 -0.300211D-01 -0.134725D-01 -0.474016D-03
      3  -0.100000D+01 -0.300211D-01 -0.169943D-01 -0.922374D-03 -0.668780D-03
      4  -0.100000D+01 -0.134725D-01 -0.922374D-03 -0.177723D-02 -0.446704D-04
      5  -0.100000D+01 -0.474016D-03 -0.668780D-03 -0.446704D-04 -0.691306D-04
      6  -0.100000D+01 -0.199256D-03 -0.261828D-04 -0.747316D-04 -0.410151D-05
      7  -0.100000D+01 -0.758488D-04  0.183847D-04 -0.195705D-04 -0.159408D-05
      8  -0.100000D+01 -0.953775D-05  0.497765D-05 -0.386946D-05 -0.187904D-06
      9  -0.100000D+01  0.193008D-05  0.128203D-06 -0.288200D-08 -0.140307D-07
     10  -0.100000D+01  0.529138D-07 -0.247339D-06  0.143863D-08 -0.595352D-08
     11  -0.100000D+01  0.295188D-06 -0.136776D-06  0.586781D-07  0.176815D-08
     12  -0.100000D+01  0.145142D-06 -0.587452D-07  0.184200D-07 -0.433940D-08
     13  -0.100000D+01  0.363988D-07 -0.940896D-08  0.506590D-08 -0.404960D-09
                 6             7             8             9            10 
      1  -0.100000D+01 -0.100000D+01 -0.100000D+01 -0.100000D+01 -0.100000D+01
      2  -0.199256D-03 -0.758488D-04 -0.953775D-05  0.193008D-05  0.529138D-07
      3  -0.261828D-04  0.183847D-04  0.497765D-05  0.128203D-06 -0.247339D-06
      4  -0.747316D-04 -0.195705D-04 -0.386946D-05 -0.288200D-08  0.143863D-08
      5  -0.410151D-05 -0.159408D-05 -0.187904D-06 -0.140307D-07 -0.595352D-08
      6  -0.119691D-04 -0.249230D-05 -0.993460D-06 -0.712765D-07 -0.286231D-07
      7  -0.249230D-05 -0.102261D-05 -0.303852D-06 -0.332106D-07 -0.681527D-08
      8  -0.993460D-06 -0.303852D-06 -0.150827D-06 -0.138738D-07 -0.739421D-08
      9  -0.712765D-07 -0.332106D-07 -0.138738D-07 -0.523115D-08 -0.124163D-08
     10  -0.286231D-07 -0.681527D-08 -0.739421D-08 -0.124163D-08 -0.999979D-09
     11  -0.873966D-09  0.104015D-08 -0.549082D-09 -0.337980D-09 -0.147510D-09
     12  -0.926453D-09 -0.865128D-10 -0.174154D-09 -0.514346D-10 -0.635229D-10
     13   0.218512D-09  0.907411D-10  0.332025D-10  0.197226D-11 -0.319606D-11
                11            12            13 
      1  -0.100000D+01 -0.100000D+01 -0.100000D+01
      2   0.295188D-06  0.145142D-06  0.363988D-07
      3  -0.136776D-06 -0.587452D-07 -0.940896D-08
      4   0.586781D-07  0.184200D-07  0.506590D-08
      5   0.176815D-08 -0.433940D-08 -0.404960D-09
      6  -0.873966D-09 -0.926453D-09  0.218512D-09
      7   0.104015D-08 -0.865128D-10  0.907411D-10
      8  -0.549082D-09 -0.174154D-09  0.332025D-10
      9  -0.337980D-09 -0.514346D-10  0.197226D-11
     10  -0.147510D-09 -0.635229D-10 -0.319606D-11
     11  -0.733971D-10 -0.112622D-10 -0.241307D-11
     12  -0.112622D-10 -0.970575D-11 -0.125132D-11
     13  -0.241307D-11 -0.125132D-11 -0.544376D-12
 Tr matrix at iteration         12
                 1             2             3             4             5 
      1  -0.779367D+02  0.000000D+00  0.000000D+00  0.000000D+00  0.000000D+00
      2   0.000000D+00 -0.198531D+02 -0.200531D+02 -0.200332D+02 -0.200247D+02
      3   0.000000D+00 -0.196256D+02 -0.198989D+02 -0.199165D+02 -0.199138D+02
      4   0.000000D+00 -0.196977D+02 -0.200085D+02 -0.200328D+02 -0.200349D+02
      5   0.000000D+00 -0.196769D+02 -0.199934D+02 -0.200225D+02 -0.200252D+02
      6   0.000000D+00 -0.196796D+02 -0.199982D+02 -0.200279D+02 -0.200309D+02
      7   0.100000D+01 -0.196794D+02 -0.199984D+02 -0.200283D+02 -0.200314D+02
      8   0.000000D+00 -0.196793D+02 -0.199983D+02 -0.200283D+02 -0.200314D+02
      9   0.000000D+00 -0.196792D+02 -0.199982D+02 -0.200282D+02 -0.200313D+02
     10   0.000000D+00 -0.196792D+02 -0.199982D+02 -0.200282D+02 -0.200313D+02
     11   0.000000D+00 -0.196792D+02 -0.199982D+02 -0.200282D+02 -0.200313D+02
     12   0.000000D+00 -0.196792D+02 -0.199982D+02 -0.200282D+02 -0.200313D+02
     13   0.000000D+00 -0.196792D+02 -0.199982D+02 -0.200282D+02 -0.200313D+02
                 6             7             8             9            10 
      1   0.000000D+00  0.000000D+00  0.000000D+00  0.000000D+00  0.000000D+00
      2  -0.200217D+02 -0.200211D+02 -0.200209D+02 -0.200209D+02 -0.200209D+02
      3  -0.199129D+02 -0.199126D+02 -0.199125D+02 -0.199124D+02 -0.199124D+02
      4  -0.200346D+02 -0.200345D+02 -0.200344D+02 -0.200344D+02 -0.200344D+02
      5  -0.200253D+02 -0.200252D+02 -0.200252D+02 -0.200252D+02 -0.200252D+02
      6  -0.200311D+02 -0.200311D+02 -0.200311D+02 -0.200311D+02 -0.200311D+02
      7  -0.200316D+02 -0.200316D+02 -0.200316D+02 -0.200316D+02 -0.200316D+02
      8  -0.200316D+02 -0.200316D+02 -0.200317D+02 -0.200317D+02 -0.200317D+02
      9  -0.200315D+02 -0.200316D+02 -0.200316D+02 -0.200316D+02 -0.200316D+02
     10  -0.200316D+02 -0.200316D+02 -0.200316D+02 -0.200316D+02 -0.200316D+02
     11  -0.200315D+02 -0.200316D+02 -0.200316D+02 -0.200316D+02 -0.200316D+02
     12  -0.200315D+02 -0.200316D+02 -0.200316D+02 -0.200316D+02 -0.200316D+02
     13  -0.200315D+02 -0.200316D+02 -0.200316D+02 -0.200316D+02 -0.200316D+02
                11            12            13 
      1   0.000000D+00  0.000000D+00  0.000000D+00
      2  -0.200209D+02 -0.200209D+02 -0.200209D+02
      3  -0.199124D+02 -0.199124D+02 -0.199124D+02
      4  -0.200344D+02 -0.200344D+02 -0.200344D+02
      5  -0.200252D+02 -0.200252D+02 -0.200252D+02
      6  -0.200311D+02 -0.200311D+02 -0.200311D+02
      7  -0.200316D+02 -0.200316D+02 -0.200316D+02
      8  -0.200317D+02 -0.200317D+02 -0.200317D+02
      9  -0.200316D+02 -0.200316D+02 -0.200316D+02
     10  -0.200316D+02 -0.200316D+02 -0.200316D+02
     11  -0.200316D+02 -0.200316D+02 -0.200316D+02
     12  -0.200316D+02 -0.200316D+02 -0.200316D+02
     13  -0.200316D+02 -0.200316D+02 -0.200316D+02
 BE matrix at iteration         12
                 1             2             3             4             5 
      1   0.000000D+00 -0.100000D+01 -0.100000D+01 -0.100000D+01 -0.100000D+01
      2  -0.100000D+01  0.000000D+00 -0.734395D-01 -0.155070D+00 -0.176769D+00
      3  -0.100000D+01 -0.734395D-01  0.000000D+00 -0.673179D-02 -0.169327D-01
      4  -0.100000D+01 -0.155070D+00 -0.673179D-02  0.000000D+00 -0.598767D-03
      5  -0.100000D+01 -0.176769D+00 -0.169327D-01 -0.598767D-03  0.000000D+00
      6  -0.100000D+01 -0.182949D+00 -0.189839D-01 -0.147426D-02 -0.823354D-04
      7  -0.100000D+01 -0.184239D+00 -0.196151D-01 -0.168497D-02 -0.167326D-03
      8  -0.100000D+01 -0.184584D+00 -0.198362D-01 -0.178103D-02 -0.213001D-03
      9  -0.100000D+01 -0.184665D+00 -0.198961D-01 -0.181211D-02 -0.230429D-03
     10  -0.100000D+01 -0.184671D+00 -0.199013D-01 -0.181597D-02 -0.232775D-03
     11  -0.100000D+01 -0.184673D+00 -0.199024D-01 -0.181678D-02 -0.233322D-03
     12  -0.100000D+01 -0.184672D+00 -0.199022D-01 -0.181671D-02 -0.233326D-03
     13  -0.100000D+01 -0.184673D+00 -0.199023D-01 -0.181678D-02 -0.233354D-03
                 6             7             8             9            10 
      1  -0.100000D+01 -0.100000D+01 -0.100000D+01 -0.100000D+01 -0.100000D+01
      2  -0.182949D+00 -0.184239D+00 -0.184584D+00 -0.184665D+00 -0.184671D+00
      3  -0.189839D-01 -0.196151D-01 -0.198362D-01 -0.198961D-01 -0.199013D-01
      4  -0.147426D-02 -0.168497D-02 -0.178103D-02 -0.181211D-02 -0.181597D-02
      5  -0.823354D-04 -0.167326D-03 -0.213001D-03 -0.230429D-03 -0.232775D-03
      6   0.000000D+00 -0.919292D-05 -0.250564D-04 -0.323333D-04 -0.335716D-04
      7  -0.919292D-05  0.000000D+00 -0.366656D-05 -0.700871D-05 -0.764673D-05
      8  -0.250564D-04 -0.366656D-05  0.000000D+00 -0.525366D-06 -0.736636D-06
      9  -0.323333D-04 -0.700871D-05 -0.525366D-06  0.000000D+00 -0.189925D-07
     10  -0.335716D-04 -0.764673D-05 -0.736636D-06 -0.189925D-07  0.000000D+00
     11  -0.338710D-04 -0.782400D-05 -0.802528D-06 -0.355435D-07 -0.249172D-08
     12  -0.338877D-04 -0.784147D-05 -0.812520D-06 -0.396399D-07 -0.407716D-08
     13  -0.339034D-04 -0.785082D-05 -0.816642D-06 -0.411613D-07 -0.467521D-08
                11            12            13 
      1  -0.100000D+01 -0.100000D+01 -0.100000D+01
      2  -0.184673D+00 -0.184672D+00 -0.184673D+00
      3  -0.199024D-01 -0.199022D-01 -0.199023D-01
      4  -0.181678D-02 -0.181671D-02 -0.181678D-02
      5  -0.233322D-03 -0.233326D-03 -0.233354D-03
      6  -0.338710D-04 -0.338877D-04 -0.339034D-04
      7  -0.782400D-05 -0.784147D-05 -0.785082D-05
      8  -0.802528D-06 -0.812520D-06 -0.816642D-06
      9  -0.355435D-07 -0.396399D-07 -0.411613D-07
     10  -0.249172D-08 -0.407716D-08 -0.467521D-08
     11   0.000000D+00 -0.205585D-09 -0.388262D-09
     12  -0.205585D-09  0.000000D+00 -0.275904D-10
     13  -0.388262D-09 -0.275904D-10  0.000000D+00
 NSaved=12 IEnMin=12 EnMin= -77.9366708798129     IErMin=12 ErrMin= 1.08D-07
 ErrMax= 1.08D-07  0.00D+00 EMaxC= 1.00D-01 BMatC= 5.44D-13 BMatP= 9.71D-12
 IDIUse=1 WtCom= 1.00D+00 WtEn= 0.00D+00
 Inv2:  IOpt= 1 Iter= 1 AM= 2.06D-03 Conv= 1.00D-12.
 Inv2:  IOpt= 1 Iter= 2 AM= 1.69D-17 Conv= 1.00D-12.
 Coeff-Com:  0.160D-05-0.481D-05-0.929D-05 0.447D-04 0.139D-03-0.668D-03
 Coeff-Com:  0.103D-03 0.680D-02 0.439D-02-0.606D-01-0.101D+00 0.115D+01
 Coeff-En:   0.000D+00 0.000D+00 0.000D+00 0.000D+00 0.000D+00 0.000D+00
 Coeff-En:   0.000D+00 0.000D+00 0.000D+00 0.000D+00 0.000D+00 0.000D+00
 Coeff:      0.160D-05-0.481D-05-0.929D-05 0.447D-04 0.139D-03-0.668D-03
 Coeff:      0.103D-03 0.680D-02 0.439D-02-0.606D-01-0.101D+00 0.115D+01
 NOrbs=    40 LenY=   104851370 NE2=     2621284 LScr= 7
 RMSDP=6.51D-08 MaxDP=7.07D-07 DE=-4.17D-11 OVMax= 0.00D+00

 Cycle  13  Pass 1  IDiag  1:
 One-electron energy=-0.440314341144D+03
 RMSU=  2.01D-08    CP:  9.82D-01  1.27D+00  1.12D+00  1.37D+00  1.45D+00
                    CP:  1.79D+00  1.52D+00  1.48D+00  1.59D+00  1.40D+00
                    CP:  1.54D+00  1.32D+00
 FoF2E:  PMaxA= 1.30D-07S
 Calling FoFJK with Acc= 0.00D+00 ICntrl=       0.
 FoF2E:  FMaxA= 2.19D-07S
 ChkPGP:  NMat=1 NMatS=1 NMatT=0
 EA= 0.810208717047E-14  0.00000000000      0.00000000000      0.00000000000    
 EB= 0.810208717047E-14  0.00000000000      0.00000000000      0.00000000000    
 ETotA= 0.810208717047E-14 ETotB= 0.810208717047E-14
 1/2 <PG(P)>=           0.000000000000
 IMat=  1 1/2 <PG(P)>=         200.125589908486
 IMat=  1 EOne=-0.440314341144D+03 ETwo= 0.200125589908D+03 Energy=-0.240188751235D+03
[...]
  17 5   N  1S          0.00000   0.00000   0.00000   0.00000   0.00000
  18        2PX         0.00000   0.00000   0.00000   0.00000   0.00000
  19        2PY         0.00000   0.00000   0.00000   0.00000   0.00000
  20        2PZ         0.00000   0.00000   0.00000   0.00000   0.00000
  21 6   N  1S          0.00000   0.00000   0.00000   0.00000   0.00000
  22        2PX         0.00000   0.00000   0.00000   0.00000   0.00000
  23        2PY         0.00000   0.00000   0.00000   0.00000   0.00000
  24        2PZ         0.00000   0.00000   0.00000   0.00000   0.00000
  25 7   N  1S          0.00000   0.00000   0.00000   0.00000   0.00000
  26        2PX         0.00000   0.00000   0.00000   0.00000   0.00000
  27        2PY         0.00000   0.00000   0.00000   0.00000   0.00000
  28        2PZ         0.00000   0.00000   0.00000   0.00000   0.00000
  29 8   N  1S          0.00000   0.00000   0.00000   0.00000   0.00000
  30        2PX         0.00000   0.00000   0.00000   0.00000   0.00000
  31        2PY         0.00000   0.00000   0.00000   0.00000   0.00000
  32        2PZ         0.00000   0.00000   0.00000   0.00000   0.00000
  33 9   N  1S          0.00000   0.00000   0.00000   0.00000   0.00000
  34        2PX         0.00000   0.00000   0.00000   0.00000   0.00000
  35        2PY         0.00000   0.00000   0.00000   0.00000   0.00000
  36        2PZ         0.00000   0.00000   0.00000   0.00000   0.00000
  37 10  H  1S          0.00000   0.00000   0.00000   0.00000   0.00000
  38 11  H  1S          0.00000   0.00000   0.00000   0.00000   0.00000
  39 12  H  1S          0.00000   0.00000   0.00000   0.00000   0.00000
  40 13  H  1S          0.00000   0.00000   0.00000   0.00000   0.00000
                           6         7         8         9        10
   6        2PX         1.29451
   7        2PY         0.00000   1.06835
   8        2PZ         0.00000   0.00000   1.28619
   9 3   C  1S          0.00000   0.00000   0.00000   1.03118
  10        2PX         0.00000   0.00000   0.00000   0.00000   0.89758
  11        2PY         0.00000   0.00000   0.00000   0.00000   0.00000
  12        2PZ         0.00000   0.00000   0.00000   0.00000   0.00000
  13 4   C  1S          0.00000   0.00000   0.00000   0.00000   0.00000
  14        2PX         0.00000   0.00000   0.00000   0.00000   0.00000
  15        2PY         0.00000   0.00000   0.00000   0.00000   0.00000
  16        2PZ         0.00000   0.00000   0.00000   0.00000   0.00000
  17 5   N  1S          0.00000   0.00000   0.00000   0.00000   0.00000
  18        2PX         0.00000   0.00000   0.00000   0.00000   0.00000
  19        2PY         0.00000   0.00000   0.00000   0.00000   0.00000
  20        2PZ         0.00000   0.00000   0.00000   0.00000   0.00000
  21 6   N  1S          0.00000   0.00000   0.00000   0.00000   0.00000
  22        2PX         0.00000   0.00000   0.00000   0.00000   0.00000
  23        2PY         0.00000   0.00000   0.00000   0.00000   0.00000
  24        2PZ         0.00000   0.00000   0.00000   0.00000   0.00000
  25 7   N  1S          0.00000   0.00000   0.00000   0.00000   0.00000
  26        2PX         0.00000   0.00000   0.00000   0.00000   0.00000
  27        2PY         0.00000   0.00000   0.00000   0.00000   0.00000
  28        2PZ         0.00000   0.00000   0.00000   0.00000   0.00000
  29 8   N  1S          0.00000   0.00000   0.00000   0.00000   0.00000
  30        2PX         0.00000   0.00000   0.00000   0.00000   0.00000
  31        2PY         0.00000   0.00000   0.00000   0.00000   0.00000
  32        2PZ         0.00000   0.00000   0.00000   0.00000   0.00000
  33 9   N  1S          0.00000   0.00000   0.00000   0.00000   0.00000
  34        2PX         0.00000   0.00000   0.00000   0.00000   0.00000
  35        2PY         0.00000   0.00000   0.00000   0.00000   0.00000
  36        2PZ         0.00000   0.00000   0.00000   0.00000   0.00000
  37 10  H  1S          0.00000   0.00000   0.00000   0.00000   0.00000
  38 11  H  1S          0.00000   0.00000   0.00000   0.00000   0.00000
  39 12  H  1S          0.00000   0.00000   0.00000   0.00000   0.00000
  40 13  H  1S          0.00000   0.00000   0.00000   0.00000   0.00000
                          11        12        13        14        15
  11        2PY         0.91791
  12        2PZ         0.00000   0.83749
  13 4   C  1S          0.00000   0.00000   1.06127
  14        2PX         0.00000   0.00000   0.00000   0.87823
  15        2PY         0.00000   0.00000   0.00000   0.00000   0.91592
  16        2PZ         0.00000   0.00000   0.00000   0.00000   0.00000
  17 5   N  1S          0.00000   0.00000   0.00000   0.00000   0.00000
  18        2PX         0.00000   0.00000   0.00000   0.00000   0.00000
  19        2PY         0.00000   0.00000   0.00000   0.00000   0.00000
  20        2PZ         0.00000   0.00000   0.00000   0.00000   0.00000
  21 6   N  1S          0.00000   0.00000   0.00000   0.00000   0.00000
  22        2PX         0.00000   0.00000   0.00000   0.00000   0.00000
  23        2PY         0.00000   0.00000   0.00000   0.00000   0.00000
  24        2PZ         0.00000   0.00000   0.00000   0.00000   0.00000
  25 7   N  1S          0.00000   0.00000   0.00000   0.00000   0.00000
  26        2PX         0.00000   0.00000   0.00000   0.00000   0.00000
  27        2PY         0.00000   0.00000   0.00000   0.00000   0.00000
  28        2PZ         0.00000   0.00000   0.00000   0.00000   0.00000
  29 8   N  1S          0.00000   0.00000   0.00000   0.00000   0.00000
  30        2PX         0.00000   0.00000   0.00000   0.00000   0.00000
  31        2PY         0.00000   0.00000   0.00000   0.00000   0.00000
  32        2PZ         0.00000   0.00000   0.00000   0.00000   0.00000
  33 9   N  1S          0.00000   0.00000   0.00000   0.00000   0.00000
  34        2PX         0.00000   0.00000   0.00000   0.00000   0.00000
  35        2PY         0.00000   0.00000   0.00000   0.00000   0.00000
  36        2PZ         0.00000   0.00000   0.00000   0.00000   0.00000
  37 10  H  1S          0.00000   0.00000   0.00000   0.00000   0.00000
  38 11  H  1S          0.00000   0.00000   0.00000   0.00000   0.00000
  39 12  H  1S          0.00000   0.00000   0.00000   0.00000   0.00000
  40 13  H  1S          0.00000   0.00000   0.00000   0.00000   0.00000
                          16        17        18        19        20
  16        2PZ         0.87603
  17 5   N  1S          0.00000   1.64413
  18        2PX         0.00000   0.00000   1.28161
  19        2PY         0.00000   0.00000   0.00000   1.13435
  20        2PZ         0.00000   0.00000   0.00000   0.00000   1.20599
  21 6   N  1S          0.00000   0.00000   0.00000   0.00000   0.00000
  22        2PX         0.00000   0.00000   0.00000   0.00000   0.00000
  23        2PY         0.00000   0.00000   0.00000   0.00000   0.00000
  24        2PZ         0.00000   0.00000   0.00000   0.00000   0.00000
  25 7   N  1S          0.00000   0.00000   0.00000   0.00000   0.00000
  26        2PX         0.00000   0.00000   0.00000   0.00000   0.00000
  27        2PY         0.00000   0.00000   0.00000   0.00000   0.00000
  28        2PZ         0.00000   0.00000   0.00000   0.00000   0.00000
  29 8   N  1S          0.00000   0.00000   0.00000   0.00000   0.00000
  30        2PX         0.00000   0.00000   0.00000   0.00000   0.00000
  31        2PY         0.00000   0.00000   0.00000   0.00000   0.00000
  32        2PZ         0.00000   0.00000   0.00000   0.00000   0.00000
  33 9   N  1S          0.00000   0.00000   0.00000   0.00000   0.00000
  34        2PX         0.00000   0.00000   0.00000   0.00000   0.00000
  35        2PY         0.00000   0.00000   0.00000   0.00000   0.00000
  36        2PZ         0.00000   0.00000   0.00000   0.00000   0.00000
  37 10  H  1S          0.00000   0.00000   0.00000   0.00000   0.00000
  38 11  H  1S          0.00000   0.00000   0.00000   0.00000   0.00000
  39 12  H  1S          0.00000   0.00000   0.00000   0.00000   0.00000
  40 13  H  1S          0.00000   0.00000   0.00000   0.00000   0.00000
                          21        22        23        24        25
  21 6   N  1S          1.64945
  22        2PX         0.00000   1.02907
  23        2PY         0.00000   0.00000   1.26165
  24        2PZ         0.00000   0.00000   0.00000   1.13847
  25 7   N  1S          0.00000   0.00000   0.00000   0.00000   1.66420
  26        2PX         0.00000   0.00000   0.00000   0.00000   0.00000
  27        2PY         0.00000   0.00000   0.00000   0.00000   0.00000
  28        2PZ         0.00000   0.00000   0.00000   0.00000   0.00000
  29 8   N  1S          0.00000   0.00000   0.00000   0.00000   0.00000
  30        2PX         0.00000   0.00000   0.00000   0.00000   0.00000
  31        2PY         0.00000   0.00000   0.00000   0.00000   0.00000
  32        2PZ         0.00000   0.00000   0.00000   0.00000   0.00000
  33 9   N  1S          0.00000   0.00000   0.00000   0.00000   0.00000
  34        2PX         0.00000   0.00000   0.00000   0.00000   0.00000
  35        2PY         0.00000   0.00000   0.00000   0.00000   0.00000
  36        2PZ         0.00000   0.00000   0.00000   0.00000   0.00000
  37 10  H  1S          0.00000   0.00000   0.00000   0.00000   0.00000
  38 11  H  1S          0.00000   0.00000   0.00000   0.00000   0.00000
  39 12  H  1S          0.00000   0.00000   0.00000   0.00000   0.00000
  40 13  H  1S          0.00000   0.00000   0.00000   0.00000   0.00000
                          26        27        28        29        30
  26        2PX         1.26004
  27        2PY         0.00000   1.04719
  28        2PZ         0.00000   0.00000   1.16068
  29 8   N  1S          0.00000   0.00000   0.00000   1.24527
  30        2PX         0.00000   0.00000   0.00000   0.00000   1.11439
  31        2PY         0.00000   0.00000   0.00000   0.00000   0.00000
  32        2PZ         0.00000   0.00000   0.00000   0.00000   0.00000
  33 9   N  1S          0.00000   0.00000   0.00000   0.00000   0.00000
  34        2PX         0.00000   0.00000   0.00000   0.00000   0.00000
  35        2PY         0.00000   0.00000   0.00000   0.00000   0.00000
  36        2PZ         0.00000   0.00000   0.00000   0.00000   0.00000
  37 10  H  1S          0.00000   0.00000   0.00000   0.00000   0.00000
  38 11  H  1S          0.00000   0.00000   0.00000   0.00000   0.00000
  39 12  H  1S          0.00000   0.00000   0.00000   0.00000   0.00000
  40 13  H  1S          0.00000   0.00000   0.00000   0.00000   0.00000
                          31        32        33        34        35
  31        2PY         1.18515
  32        2PZ         0.00000   1.47037
  33 9   N  1S          0.00000   0.00000   1.25584
  34        2PX         0.00000   0.00000   0.00000   1.11396
  35        2PY         0.00000   0.00000   0.00000   0.00000   1.24567
  36        2PZ         0.00000   0.00000   0.00000   0.00000   0.00000
  37 10  H  1S          0.00000   0.00000   0.00000   0.00000   0.00000
  38 11  H  1S          0.00000   0.00000   0.00000   0.00000   0.00000
  39 12  H  1S          0.00000   0.00000   0.00000   0.00000   0.00000
  40 13  H  1S          0.00000   0.00000   0.00000   0.00000   0.00000
                          36        37        38        39        40
  36        2PZ         1.65844
  37 10  H  1S          0.00000   0.77426
  38 11  H  1S          0.00000   0.00000   0.80200
  39 12  H  1S          0.00000   0.00000   0.00000   0.82626
  40 13  H  1S          0.00000   0.00000   0.00000   0.00000   0.82921
     Gross orbital populations:
                           1
   1 1   O  1S          1.76030
   2        2PX         1.44221
   3        2PY         1.28272
   4        2PZ         1.79713
   5 2   N  1S          1.65532
   6        2PX         1.29451
   7        2PY         1.06835
   8        2PZ         1.28619
   9 3   C  1S          1.03118
  10        2PX         0.89758
  11        2PY         0.91791
  12        2PZ         0.83749
  13 4   C  1S          1.06127
  14        2PX         0.87823
  15        2PY         0.91592
  16        2PZ         0.87603
  17 5   N  1S          1.64413
  18        2PX         1.28161
  19        2PY         1.13435
  20        2PZ         1.20599
  21 6   N  1S          1.64945
  22        2PX         1.02907
  23        2PY         1.26165
  24        2PZ         1.13847
  25 7   N  1S          1.66420
  26        2PX         1.26004
  27        2PY         1.04719
  28        2PZ         1.16068
  29 8   N  1S          1.24527
  30        2PX         1.11439
  31        2PY         1.18515
  32        2PZ         1.47037
  33 9   N  1S          1.25584
  34        2PX         1.11396
  35        2PY         1.24567
  36        2PZ         1.65844
  37 10  H  1S          0.77426
  38 11  H  1S          0.80200
  39 12  H  1S          0.82626
  40 13  H  1S          0.82921
          Condensed to atoms (all electrons):
               1          2          3          4          5          6
     1  O    6.282366   0.000000   0.000000   0.000000   0.000000   0.000000
     2  N    0.000000   5.304371   0.000000   0.000000   0.000000   0.000000
     3  C    0.000000   0.000000   3.684163   0.000000   0.000000   0.000000
     4  C    0.000000   0.000000   0.000000   3.731455   0.000000   0.000000
     5  N    0.000000   0.000000   0.000000   0.000000   5.266084   0.000000
     6  N    0.000000   0.000000   0.000000   0.000000   0.000000   5.078645
     7  N    0.000000   0.000000   0.000000   0.000000   0.000000   0.000000
     8  N    0.000000   0.000000   0.000000   0.000000   0.000000   0.000000
     9  N    0.000000   0.000000   0.000000   0.000000   0.000000   0.000000
    10  H    0.000000   0.000000   0.000000   0.000000   0.000000   0.000000
    11  H    0.000000   0.000000   0.000000   0.000000   0.000000   0.000000
    12  H    0.000000   0.000000   0.000000   0.000000   0.000000   0.000000
    13  H    0.000000   0.000000   0.000000   0.000000   0.000000   0.000000
               7          8          9         10         11         12
     1  O    0.000000   0.000000   0.000000   0.000000   0.000000   0.000000
     2  N    0.000000   0.000000   0.000000   0.000000   0.000000   0.000000
     3  C    0.000000   0.000000   0.000000   0.000000   0.000000   0.000000
     4  C    0.000000   0.000000   0.000000   0.000000   0.000000   0.000000
     5  N    0.000000   0.000000   0.000000   0.000000   0.000000   0.000000
     6  N    0.000000   0.000000   0.000000   0.000000   0.000000   0.000000
     7  N    5.132102   0.000000   0.000000   0.000000   0.000000   0.000000
     8  N    0.000000   5.015180   0.000000   0.000000   0.000000   0.000000
     9  N    0.000000   0.000000   5.273907   0.000000   0.000000   0.000000
    10  H    0.000000   0.000000   0.000000   0.774259   0.000000   0.000000
    11  H    0.000000   0.000000   0.000000   0.000000   0.801995   0.000000
    12  H    0.000000   0.000000   0.000000   0.000000   0.000000   0.826264
    13  H    0.000000   0.000000   0.000000   0.000000   0.000000   0.000000
              13
     1  O    0.000000
     2  N    0.000000
     3  C    0.000000
     4  C    0.000000
     5  N    0.000000
     6  N    0.000000
     7  N    0.000000
     8  N    0.000000
     9  N    0.000000
    10  H    0.000000
    11  H    0.000000
    12  H    0.000000
    13  H    0.829210
 Mulliken charges:
               1
     1  O   -0.282366
     2  N   -0.304371
     3  C    0.315837
     4  C    0.268545
     5  N   -0.266084
     6  N   -0.078645
     7  N   -0.132102
     8  N   -0.015180
     9  N   -0.273907
    10  H    0.225741
    11  H    0.198005
    12  H    0.173736
    13  H    0.170790
 Sum of Mulliken charges =  -0.00000
 Mulliken charges with hydrogens summed into heavy atoms:
               1
     1  O   -0.056625
     2  N   -0.304371
     3  C    0.315837
     4  C    0.268545
     5  N   -0.266084
     6  N   -0.078645
     7  N   -0.132102
     8  N    0.182825
     9  N    0.070619
 Charge=             -0.0000 electrons
 Dipole moment (field-independent basis, Debye):
    X=              0.5486    Y=              4.4808    Z=             -2.0933  Tot=              4.9760
 N-N= 1.622520803555D+02 E-N= 0.000000000000D+00  KE=-4.403143409092D+02
 Orbital energies and kinetic energies (alpha):
                                 1                 2
   1         O                -1.932155        -10.343095
   2         O                -1.707956         -9.909534
   3         O                -1.496793         -9.607037
   4         O                -1.375818         -9.771961
   5         O                -1.268736         -9.640879
   6         O                -1.180117         -9.485879
   7         O                -1.019239         -9.367816
   8         O                -0.935432         -9.324074
   9         O                -0.890660         -9.268487
  10         O                -0.796738         -9.045627
  11         O                -0.782353         -9.054105
  12         O                -0.731833         -8.845528
  13         O                -0.627450         -9.164668
  14         O                -0.616695         -8.635192
  15         O                -0.610621         -8.936068
  16         O                -0.560737         -8.935445
  17         O                -0.515942         -8.928837
  18         O                -0.482078         -8.695769
  19         O                -0.455276         -8.718822
  20         O                -0.438257         -8.882697
  21         O                -0.433039         -9.005414
  22         O                -0.426144         -8.933413
  23         O                -0.395692         -8.838077
  24         O                -0.351820         -8.818746
  25         V                -0.046691         -8.899971
  26         V                -0.006040         -8.590970
  27         V                 0.043338         -8.937781
  28         V                 0.070866         -8.799735
  29         V                 0.141232         -8.280605
  30         V                 0.169606         -7.912694
  31         V                 0.228602         -7.407253
  32         V                 0.235956         -8.223622
  33         V                 0.279774         -7.569682
  34         V                 0.281533         -8.232807
  35         V                 0.309936         -8.283846
  36         V                 0.347394         -8.327219
  37         V                 0.385535         -8.460037
  38         V                 0.445706         -8.330167
  39         V                 0.466424         -8.184569
  40         V                 0.489571         -8.258364
 Total kinetic energy from orbitals=-4.403143409092D+02

 Test job not archived.
 1\1\GINC-NODE032\SP\RZINDO CIS\STO-3G\C2H4N6O1\SGOOMAR1\12-Aug-2025\0\
 \#n ZINDO sp IOP(5/33=2) PUNCH=(MO,Coord) pop=full nosymm\\title\\0,1\
 O,0,3.05396,1.20402,-0.25832\N,0,2.29152,0.24899,0.3794\C,0,2.97168,-0
 .83943,0.665\C,0,2.23313,-1.89549,1.36188\N,0,2.72155,-3.03822,1.92103
 \N,0,1.67926,-3.69668,2.44952\N,0,0.56493,-3.04939,2.26572\N,0,0.85599
 ,-1.91169,1.58681\N,0,4.27926,-1.1064,0.31278\H,0,2.36828,1.93108,-0.3
 5101\H,0,0.14974,-1.24485,1.34341\H,0,4.83965,-0.34947,-0.03378\H,0,4.
 75655,-1.88955,0.72166\\Version=ES64L-G16RevA.03\HF=-77.9366709\RMSD=5
 .394e-09\PG=C01 [X(C2H4N6O1)]\\@


 GARLIC THEN HAVE POWER TO SAVE FROM DEATH
 BEAR WITH IT THOUGH IT MAKETH UNSAVORY BREATH,
 AND SCORN NOT GARLIC LIKE SOME THAT THINK
 IT ONLY MAKETH MEN WINK AND DRINK AND STINK.
   --  SIR JOHN HARRINGTON,
       "THE ENGLISHMAN'S DOCTOR", 1609
 Job cpu time:       0 days  0 hours  0 minutes  2.2 seconds.
 Elapsed time:       0 days  0 hours  0 minutes  0.8 seconds.
 File lengths (MBytes):  RWF=     28 Int=      0 D2E=      0 Chk=      1 Scr=      1
 Normal termination of Gaussian 16 at Tue Aug 12 15:59:20 2025.
