 Entering Gaussian System, Link 0=g16
 Initial command:
 /opt/apps/pkg/applications/licensed/gaussian/v16/x86_64AVX2/g16/l1.exe "/tmp/258290/815/3262_MCULE-8764884874_08/Gau-2074037.inp" -scrdir="/tmp/258290/815/3262_MCULE-8764884874_08/"
 Entering Link 1 = /opt/apps/pkg/applications/licensed/gaussian/v16/x86_64AVX2/g16/l1.exe PID=   2074059.
  
 Copyright (c) 1988,1990,1992,1993,1995,1998,2003,2009,2016,
            Gaussian, Inc.  All Rights Reserved.
  
 This is part of the Gaussian(R) 16 program.  It is based on
 the Gaussian(R) 09 system (copyright 2009, Gaussian, Inc.),
 the Gaussian(R) 03 system (copyright 2003, Gaussian, Inc.),
 the Gaussian(R) 98 system (copyright 1998, Gaussian, Inc.),
 the Gaussian(R) 94 system (copyright 1995, Gaussian, Inc.),
 the Gaussian 92(TM) system (copyright 1992, Gaussian, Inc.),
 the Gaussian 90(TM) system (copyright 1990, Gaussian, Inc.),
 the Gaussian 88(TM) system (copyright 1988, Gaussian, Inc.),
 the Gaussian 86(TM) system (copyright 1986, Carnegie Mellon
 University), and the Gaussian 82(TM) system (copyright 1983,
 Carnegie Mellon University). Gaussian is a federally registered
 trademark of Gaussian, Inc.
  
 This software contains proprietary and confidential information,
 including trade secrets, belonging to Gaussian, Inc.
  
 This software is provided under written license and may be
 used, copied, transmitted, or stored only in accord with that
 written license.
  
 The following legend is applicable only to US Government
 contracts under FAR:
  
                    RESTRICTED RIGHTS LEGEND
  
 Use, reproduction and disclosure by the US Government is
 subject to restrictions as set forth in subparagraphs (a)
 and (c) of the Commercial Computer Software - Restricted
 Rights clause in FAR 52.227-19.
  
 Gaussian, Inc.
 340 Quinnipiac St., Bldg. 40, Wallingford CT 06492
  
  
 ---------------------------------------------------------------
 Warning -- This program may not be used in any manner that
 competes with the business of Gaussian, Inc. or will provide
 assistance to any competitor of Gaussian, Inc.  The licensee
 of this program is prohibited from giving any competitor of
 Gaussian, Inc. access to this program.  By using this program,
 the user acknowledges that Gaussian, Inc. is engaged in the
 business of creating and licensing software in the field of
 computational chemistry and represents and warrants to the
 licensee that it is not a competitor of Gaussian, Inc. and that
 it will not use this program in any manner prohibited above.
 ---------------------------------------------------------------
  

 Cite this work as:
 Gaussian 16, Revision A.03,
 M. J. Frisch, G. W. Trucks, H. B. Schlegel, G. E. Scuseria, 
 M. A. Robb, J. R. Cheeseman, G. Scalmani, V. Barone, 
 G. A. Petersson, H. Nakatsuji, X. Li, M. Caricato, A. V. Marenich, 
 J. Bloino, B. G. Janesko, R. Gomperts, B. Mennucci, H. P. Hratchian, 
 J. V. Ortiz, A. F. Izmaylov, J. L. Sonnenberg, D. Williams-Young, 
 F. Ding, F. Lipparini, F. Egidi, J. Goings, B. Peng, A. Petrone, 
 T. Henderson, D. Ranasinghe, V. G. Zakrzewski, J. Gao, N. Rega, 
 G. Zheng, W. Liang, M. Hada, M. Ehara, K. Toyota, R. Fukuda, 
 J. Hasegawa, M. Ishida, T. Nakajima, Y. Honda, O. Kitao, H. Nakai, 
 T. Vreven, K. Throssell, J. A. Montgomery, Jr., J. E. Peralta, 
 F. Ogliaro, M. J. Bearpark, J. J. Heyd, E. N. Brothers, K. N. Kudin, 
 V. N. Staroverov, T. A. Keith, R. Kobayashi, J. Normand, 
 K. Raghavachari, A. P. Rendell, J. C. Burant, S. S. Iyengar, 
 J. Tomasi, M. Cossi, J. M. Millam, M. Klene, C. Adamo, R. Cammi, 
 J. W. Ochterski, R. L. Martin, K. Morokuma, O. Farkas, 
 J. B. Foresman, and D. J. Fox, Gaussian, Inc., Wallingford CT, 2016.
 
 ******************************************
 Gaussian 16:  ES64L-G16RevA.03 25-Dec-2016
                12-Aug-2025 
 ******************************************
 %nproc=4
 Will use up to    4 processors via shared memory.
 %chk=MCULE-8764884874_08.chk
 --------------------------------------------------------
 #n ZINDO sp IOP(5/33=2) PUNCH=(MO,Coord) pop=full nosymm
 --------------------------------------------------------
 1/38=1,172=1/1;
 2/12=2,15=1,17=6,18=5,40=1/2;
 3/5=2,25=1,41=400000/1,2,3,8;
 4/5=3,35=1/1;
 5/5=2,33=2,35=1,38=5/2;
 8/6=1/1;
 9/42=1,49=10/14;
 6/7=3/1;
 99/5=1,9=1,10=34/99;
 -----
 title
 -----
 Symbolic Z-matrix:
 Charge =  0 Multiplicity = 1
 C                     1.45427   0.41086  -0.92733 
 C                     2.39996  -0.08376  -0.12599 
 C                     3.1417   -1.31694  -0.43785 
 N                     2.79107  -2.04924  -1.52079 
 C                     3.52996  -3.19034  -1.76491 
 N                     4.55259  -3.62396  -0.9547 
 C                     4.82783  -2.80953   0.10963 
 N                     4.15144  -1.64977   0.40684 
 N                     5.84156  -3.18026   0.94278 
 N                     3.28879  -3.87888  -2.9119 
 C                     2.05974  -3.66142  -3.6999 
 C                     1.70661  -5.03481  -4.30116 
 C                     3.00167  -5.86516  -4.23279 
 C                     3.8548   -5.22723  -3.11995 
 H                     0.90589   1.31537  -0.70905 
 H                     1.16372  -0.05944  -1.86131 
 H                     2.69586   0.3922    0.81384 
 H                     6.36143  -4.01274   0.75716 
 H                     6.06965  -2.60964   1.73132 
 H                     2.2824   -2.90513  -4.48498 
 H                     1.23966  -3.2474   -3.07388 
 H                     1.33866  -4.93983  -5.3342 
 H                     0.90011  -5.51875  -3.72353 
 H                     3.5356   -5.83599  -5.19813 
 H                     2.79323  -6.92528  -4.02102 
 H                     4.92407  -5.12392  -3.40675 
 H                     3.82976  -5.82078  -2.17978 
 
                          Input orientation:                          
 ---------------------------------------------------------------------
 Center     Atomic      Atomic             Coordinates (Angstroms)
 Number     Number       Type             X           Y           Z
 ---------------------------------------------------------------------
      1          6           0        1.454270    0.410860   -0.927330
      2          6           0        2.399960   -0.083760   -0.125990
      3          6           0        3.141700   -1.316940   -0.437850
      4          7           0        2.791070   -2.049240   -1.520790
      5          6           0        3.529960   -3.190340   -1.764910
      6          7           0        4.552590   -3.623960   -0.954700
      7          6           0        4.827830   -2.809530    0.109630
      8          7           0        4.151440   -1.649770    0.406840
      9          7           0        5.841560   -3.180260    0.942780
     10          7           0        3.288790   -3.878880   -2.911900
     11          6           0        2.059740   -3.661420   -3.699900
     12          6           0        1.706610   -5.034810   -4.301160
     13          6           0        3.001670   -5.865160   -4.232790
     14          6           0        3.854800   -5.227230   -3.119950
     15          1           0        0.905890    1.315370   -0.709050
     16          1           0        1.163720   -0.059440   -1.861310
     17          1           0        2.695860    0.392200    0.813840
     18          1           0        6.361430   -4.012740    0.757160
     19          1           0        6.069650   -2.609640    1.731320
     20          1           0        2.282400   -2.905130   -4.484980
     21          1           0        1.239660   -3.247400   -3.073880
     22          1           0        1.338660   -4.939830   -5.334200
     23          1           0        0.900110   -5.518750   -3.723530
     24          1           0        3.535600   -5.835990   -5.198130
     25          1           0        2.793230   -6.925280   -4.021020
     26          1           0        4.924070   -5.123920   -3.406750
     27          1           0        3.829760   -5.820780   -2.179780
 ---------------------------------------------------------------------
                    Distance matrix (angstroms):
                    1          2          3          4          5
     1  C    0.000000
     2  C    1.334588   0.000000
     3  C    2.464204   1.472470   0.000000
     4  N    2.862048   2.441628   1.353501   0.000000
     5  C    4.240126   3.689688   2.328403   1.381181   0.000000
     6  N    5.087250   4.225351   2.753196   2.429641   1.374860
     7  C    4.777772   3.657853   2.317454   2.717481   2.311576
     8  N    3.647044   2.409145   1.357885   2.392894   2.734244
     9  N    5.970073   4.751336   3.559121   4.080916   3.560222
    10  N    5.070094   4.791059   3.564561   2.351700   1.359351
    11  C    4.963588   5.068356   4.160312   2.807577   2.475409
    12  C    6.411063   6.513499   5.550424   4.221391   3.627567
    13  C    7.260092   7.117053   5.925157   4.686208   3.677524
    14  C    6.508317   6.126634   4.795054   3.713281   2.467909
    15  H    1.080049   2.128325   3.464311   3.941247   5.319963
    16  H    1.085320   2.130778   2.742253   2.592976   3.925674
    17  H    2.138590   1.094246   2.164870   3.379377   4.492245
    18  H    6.818062   5.648901   4.366011   4.668175   3.880000
    19  H    6.123200   4.826624   3.866428   4.651812   4.360145
    20  H    4.933403   5.193721   4.431705   3.126934   3.006082
    21  H    4.246952   4.477161   3.780620   2.500910   2.638585
    22  H    6.932803   7.199529   6.352207   5.000710   4.538980
    23  H    6.579217   6.688121   5.785812   4.523858   4.021666
    24  H    7.848236   7.752705   6.575503   5.330725   4.334339
    25  H    8.073579   7.882405   6.664384   5.479683   4.425221
    26  H    6.987190   6.522096   5.146291   4.190488   2.894462
    27  H    6.785641   6.259056   4.877737   3.967072   2.679778
                    6          7          8          9         10
     6  N    0.000000
     7  C    1.368156   0.000000
     8  N    2.431489   1.375093   0.000000
     9  N    2.336395   1.363535   2.342250   0.000000
    10  N    2.343674   3.555530   4.089882   4.675817   0.000000
    11  C    3.708346   4.785453   5.028644   6.007342   1.476075
    12  C    4.613989   5.843711   6.292929   6.930806   2.401981
    13  C    4.263121   5.615011   6.373198   6.485383   2.402602
    14  C    2.783109   4.149970   5.032342   4.964179   1.477058
    15  H    6.144570   5.750361   4.535511   6.877505   6.124622
    16  H    5.001218   4.987314   4.074325   6.283679   4.495307
    17  H    4.764947   3.910535   2.540473   4.761777   5.698669
    18  H    2.520618   2.054005   3.254291   0.998871   4.787592
    19  H    3.247310   2.052304   2.520938   0.999714   5.559105
    20  H    4.258328   5.253455   5.385085   6.496452   2.106084
    21  H    3.950725   4.816786   4.811060   6.108645   2.150334
    22  H    5.589354   6.807920   7.189977   7.922921   3.285751
    23  H    4.959562   6.120455   6.526876   7.187553   3.008938
    24  H    4.892243   6.245129   7.022776   7.076802   3.019610
    25  H    4.836980   6.175861   7.020091   6.925085   3.279677
    26  H    2.898349   4.210771   5.216334   4.851599   2.114034
    27  H    2.617121   3.912182   4.918476   4.557419   2.144673
                   11         12         13         14         15
    11  C    0.000000
    12  C    1.540264   0.000000
    13  C    2.455132   1.539914   0.000000
    14  C    2.451600   2.459065   1.540519   0.000000
    15  H    5.919881   7.339564   8.268558   7.570609   0.000000
    16  H    4.142164   5.567935   6.535164   5.960884   1.812259
    17  H    6.100027   7.522917   8.044660   6.956712   2.524961
    18  H    6.204301   6.949718   6.294366   4.773904   7.765400
    19  H    6.832552   7.829967   7.455301   5.940720   6.930045
    20  H    1.112611   2.213789   3.056587   3.118958   5.827954
    21  H    1.111686   2.217903   3.361610   3.280367   5.150019
    22  H    2.196639   1.100718   2.198850   3.363995   7.791459
    23  H    2.189743   1.103765   2.189954   3.029767   7.469426
    24  H    3.025163   2.188984   1.103546   2.188906   8.843595
    25  H    3.360641   2.198431   1.100976   2.195958   9.079621
    26  H    3.229432   3.340652   2.219775   1.111875   8.055297
    27  H    3.179083   3.102542   2.214171   1.112137   7.850904
                   16         17         18         19         20
    16  H    0.000000
    17  H    3.115744   0.000000
    18  H    7.035706   5.730891   0.000000
    19  H    6.593835   4.608174   1.732863   0.000000
    20  H    4.029025   6.254664   6.733893   7.285119   0.000000
    21  H    3.411625   5.521012   6.441672   6.842915   1.787641
    22  H    5.992477   8.250511   7.949364   8.816667   2.398296
    23  H    5.774203   7.664971   7.222926   8.058688   3.053120
    24  H    7.080163   8.697086   6.839228   8.052827   3.266349
    25  H    7.379662   8.771024   6.636712   7.902474   4.078947
    26  H    6.494426   7.294236   4.543002   5.833843   3.614420
    27  H    6.356275   6.989178   4.278315   5.534007   4.026076
                   21         22         23         24         25
    21  H    0.000000
    22  H    2.825450   0.000000
    23  H    2.386707   1.766842   0.000000
    24  H    4.060120   2.376586   3.036592   0.000000
    25  H    4.103347   2.789664   2.377126   1.767273   0.000000
    26  H    4.148133   4.074815   4.055674   2.375697   2.857045
    27  H    3.759031   4.114853   3.325242   3.032688   2.384215
                   26         27
    26  H    0.000000
    27  H    1.785661   0.000000
 Symmetry turned off by external request.
 Stoichiometry    C9H13N5
 Framework group  C1[X(C9H13N5)]
 Deg. of freedom    75
 Full point group                 C1      NOp   1
 Rotational constants (GHZ):           1.0389273           0.4823521           0.3343217
 Standard basis: VSTO-6G (5D, 7F)
    69 basis functions,   414 primitive gaussians,    69 cartesian basis functions
    37 alpha electrons       37 beta electrons
       nuclear repulsion energy       454.2481139094 Hartrees.
 Integral buffers will be    131072 words long.
 Regular integral format.
 Two-electron integral symmetry is turned off.
 Do NDO integrals.
 One-electron integrals computed using PRISM.
 Generate ZINDO/S integrals.
 NDO Nuclear repulsion=   343.716247604779 Hartrees.
 NBasis=    69 RedAO= F EigKep=  0.00D+00  NBF=    69
 NBsUse=    69 1.00D-04 EigRej=  0.00D+00 NBFU=    69
 DipDrv:  will hold  3 matrices at once.
 Simple Huckel Guess.
 A Direct SCF calculation will be performed.
 ReadGW:  IGet=1 IStart=         818 Next=         818 LGW=           0.
 Two-electron integral symmetry not used.
 Pruned (  99, 590) grid will be used in numerical quadrature.
 Closed shell SCF:
 Using DIIS extrapolation, IDIIS=  1040.
 Overlap will be assumed to be unity.
 NBasis=       69 NAllTT=     2415 NAllSq=     4761 NWIIB=         0
 INEq=        881 IIJ=         881 ID=         1079
 IDD=        5840 IDA=        1079 IDB=        3494 IF=         5909
 IFF=       10670 IFA=        5909 IFB=        8324 IScr2=     10739
 IV=        11291 IBuf2E=      951 IMin=      27932
 IOpCl=         0
 NGot=   104857600 LenX=   104846310 LenY=   104841108
 Requested convergence on RMS density matrix=1.00D-08 within 128 cycles.
 Requested convergence on MAX density matrix=1.00D-06.
 Requested convergence on             energy=1.00D-06.
 No special actions if energy rises.
 Fock matrices will be formed incrementally for  20 cycles.
 Selected VarAcc= 1.

 Cycle   1  Pass 1  IDiag  1:
 One-electron energy=-0.835779903540D+03
 FoF2E:  PMaxA= 8.29D-01S
 Calling FoFJK with Acc= 0.00D+00 ICntrl=       0.
 FoF2E:  FMaxA= 1.21D+01S
 ChkPGP:  NMat=1 NMatS=1 NMatT=0
 EA=  388.878655209      0.00000000000      0.00000000000      0.00000000000    
 EB=  388.878655209      0.00000000000      0.00000000000      0.00000000000    
 ETotA=  388.878655209     ETotB=  388.878655209    
 1/2 <PG(P)>=         388.878655209046
 IMat=  1 1/2 <PG(P)>=         388.878655209046
 IMat=  1 EOne=-0.835779903540D+03 ETwo= 0.388878655209D+03 Energy=-0.446901248331D+03
 1/2 <PG(P)>=         388.878655209046
 E= -103.185000726082    
 DIIS: error= 3.88D-02 at cycle   1 NSaved=   1.
 B matrix at iteration          1
                 1             2 
      1   0.000000D+00 -0.100000D+01
      2  -0.100000D+01 -0.160202D+00
 Tr matrix at iteration          1
                 1             2 
      1   0.000000D+00  0.000000D+00
      2   0.000000D+00 -0.290113D+02
 BE matrix at iteration          1
                 1             2 
      1   0.000000D+00 -0.100000D+01
      2  -0.100000D+01  0.000000D+00
 NSaved= 1 IEnMin= 1 EnMin= -103.185000726082     IErMin= 1 ErrMin= 3.88D-02
 ErrMax= 3.88D-02  0.00D+00 EMaxC= 1.00D-01 BMatC= 1.60D-01 BMatP= 1.60D-01
 IDIUse=3 WtCom= 6.12D-01 WtEn= 3.88D-01
 UpdtCf It   0X -103.1850007      1.00000000
 UpdtCf It   0Y -103.1850007      1.00000000
 EnCoef: B12  0.0000000D+00 lambda  0.000000
 UpdtCf It   1F -103.1850007      1.00000000
 UpdtCf It   1B -103.1850007      1.00000000
 Eold -103.1850007261     Efwd -103.1850007261     Ebck -103.1850007261    
 Coeff-Com:  0.100D+01
 Coeff-En:   0.100D+01
 Coeff:      0.100D+01
 NOrbs=    69 LenY=   104841108 NE2=     1519436 LScr= 7
 GapD=    2.000 DampG=2.000 DampE=0.500 DampFc=1.0000 IDamp=-1.
 RMSDP=9.95D-03 MaxDP=1.08D-01              OVMax= 0.00D+00

 Cycle   2  Pass 1  IDiag  1:
 One-electron energy=-0.836610836926D+03
 RMSU=  9.93D-03    CP:  9.94D-01
 FoF2E:  PMaxA= 1.03D-01S
 Calling FoFJK with Acc= 0.00D+00 ICntrl=       0.
 FoF2E:  FMaxA= 1.36D-01S
 ChkPGP:  NMat=1 NMatS=1 NMatT=0
 EA=-0.194939855479E-01  0.00000000000      0.00000000000      0.00000000000    
 EB=-0.194939855479E-01  0.00000000000      0.00000000000      0.00000000000    
 ETotA=-0.194939855479E-01 ETotB=-0.194939855479E-01
 1/2 <PG(P)>=          -0.019493985548
 IMat=  1 1/2 <PG(P)>=         389.306099780874
 IMat=  1 EOne=-0.836610836926D+03 ETwo= 0.389306099781D+03 Energy=-0.447304737146D+03
 1/2 <PG(P)>=         389.306099780874
 E= -103.588489540724     Delta-E=       -0.403488814642 Rises=F Damp=F
 DIIS: error= 1.15D-02 at cycle   2 NSaved=   2.
 B matrix at iteration          2
                 1             2             3 
      1   0.000000D+00 -0.100000D+01 -0.100000D+01
      2  -0.100000D+01 -0.160202D+00 -0.130487D-01
      3  -0.100000D+01 -0.130487D-01 -0.154586D-01
 Tr matrix at iteration          2
                 1             2             3 
      1  -0.103185D+03  0.000000D+00  0.000000D+00
      2   0.100000D+01 -0.290113D+02 -0.291939D+02
      3   0.000000D+00 -0.287785D+02 -0.289993D+02
 BE matrix at iteration          2
                 1             2             3 
      1   0.000000D+00 -0.100000D+01 -0.100000D+01
      2  -0.100000D+01  0.000000D+00 -0.382350D-01
      3  -0.100000D+01 -0.382350D-01  0.000000D+00
 NSaved= 2 IEnMin= 2 EnMin= -103.588489540724     IErMin= 2 ErrMin= 1.15D-02
 ErrMax= 1.15D-02  0.00D+00 EMaxC= 1.00D-01 BMatC= 1.55D-02 BMatP= 1.60D-01
 IDIUse=3 WtCom= 8.85D-01 WtEn= 1.15D-01
 Inv2:  IOpt= 1 Iter= 1 AM= 6.71D-16 Conv= 1.00D-12.
  NMat       2 lam      0.000000      B12    -0.038235
 UpdtCf It   0X -103.5884895      0.00000000  1.00000000
  NMat       1 lam      0.000000      B12    -0.038235
 UpdtCf It   0Y -103.5884895      0.00000000  1.00000000
 EnCoef: B12 -0.3823499D-01 lambda  0.000000
 UpdtCf It   1F -103.5884895      0.00000000  1.00000000
 UpdtCf It   1B -103.5884895      0.00000000  1.00000000
 Eold -103.1850007261     Efwd -103.5884895407     Ebck -103.5884895407    
 Coeff-Com:  0.161D-01 0.984D+00
 Coeff-En:   0.000D+00 0.100D+01
 Coeff:      0.143D-01 0.986D+00
 NOrbs=    69 LenY=   104841108 NE2=     1519436 LScr= 7
 RMSDP=2.88D-03 MaxDP=3.65D-02 DE=-4.03D-01 OVMax= 0.00D+00

 Cycle   3  Pass 1  IDiag  1:
 One-electron energy=-0.836521738868D+03
 RMSU=  2.79D-03    CP:  9.92D-01  1.07D+00
 FoF2E:  PMaxA= 3.39D-02S
 Calling FoFJK with Acc= 0.00D+00 ICntrl=       0.
 FoF2E:  FMaxA= 3.70D-02S
 ChkPGP:  NMat=1 NMatS=1 NMatT=0
 EA= 0.302480862342E-02  0.00000000000      0.00000000000      0.00000000000    
 EB= 0.302480862342E-02  0.00000000000      0.00000000000      0.00000000000    
 ETotA= 0.302480862342E-02 ETotB= 0.302480862342E-02
 1/2 <PG(P)>=           0.003024808623
 IMat=  1 1/2 <PG(P)>=         389.184037400582
 IMat=  1 EOne=-0.836521738868D+03 ETwo= 0.389184037401D+03 Energy=-0.447337701467D+03
 1/2 <PG(P)>=         389.184037400582
 E= -103.621453862182     Delta-E=       -0.032964321458 Rises=F Damp=F
 DIIS: error= 4.12D-03 at cycle   3 NSaved=   3.
 B matrix at iteration          3
                 1             2             3             4 
      1   0.000000D+00 -0.100000D+01 -0.100000D+01 -0.100000D+01
      2  -0.100000D+01 -0.160202D+00 -0.130487D-01 -0.135872D-01
      3  -0.100000D+01 -0.130487D-01 -0.154586D-01  0.190293D-03
      4  -0.100000D+01 -0.135872D-01  0.190293D-03 -0.196779D-02
 Tr matrix at iteration          3
                 1             2             3             4 
      1  -0.103588D+03  0.000000D+00  0.000000D+00  0.000000D+00
      2   0.000000D+00 -0.290113D+02 -0.291939D+02 -0.291791D+02
      3   0.100000D+01 -0.287785D+02 -0.289993D+02 -0.290151D+02
      4   0.000000D+00 -0.288082D+02 -0.290597D+02 -0.290768D+02
 BE matrix at iteration          3
                 1             2             3             4 
      1   0.000000D+00 -0.100000D+01 -0.100000D+01 -0.100000D+01
      2  -0.100000D+01  0.000000D+00 -0.382350D-01 -0.100788D+00
      3  -0.100000D+01 -0.382350D-01  0.000000D+00 -0.137718D-02
      4  -0.100000D+01 -0.100788D+00 -0.137718D-02  0.000000D+00
 NSaved= 3 IEnMin= 3 EnMin= -103.621453862182     IErMin= 3 ErrMin= 4.12D-03
 ErrMax= 4.12D-03  0.00D+00 EMaxC= 1.00D-01 BMatC= 1.97D-03 BMatP= 1.55D-02
 IDIUse=3 WtCom= 9.59D-01 WtEn= 4.12D-02
 Inv2:  IOpt= 1 Iter= 1 AM= 1.21D-14 Conv= 1.00D-12.
  NMat       2 lam      0.000000      B12    -0.038235
  NMat       3 lam      0.000000      B12    -0.001377
 UpdtCf It   0X -103.6214539      0.00000000  0.00000000  1.00000000
  NMat       2 lam      0.000000      B12    -0.001377
  NMat       1 lam      0.000000      B12    -0.100788
 UpdtCf It   0Y -103.6214539      0.00000000  0.00000000  1.00000000
 EnCoef: B12 -0.1377182D-02 lambda  0.000000
  NMat       1 lam      0.000000      B12    -0.100788
  NMat       2 lam      0.000000      B12    -0.001377
  NMat       3 lam      0.000000      B12     0.000000
 UpdtCf It   1F -103.6214539      0.00000000  0.00000000  1.00000000
  NMat       3 lam      0.000000      B12     0.000000
  NMat       2 lam      0.000000      B12    -0.001377
  NMat       1 lam      0.000000      B12    -0.100788
 UpdtCf It   1B -103.6214539      0.00000000  0.00000000  1.00000000
 Eold -103.5884895407     Efwd -103.6214538622     Ebck -103.6214538622    
 Coeff-Com: -0.876D-01 0.129D+00 0.958D+00
 Coeff-En:   0.000D+00 0.000D+00 0.100D+01
 Coeff:     -0.840D-01 0.124D+00 0.960D+00
 NOrbs=    69 LenY=   104841108 NE2=     1519436 LScr= 7
 RMSDP=1.18D-03 MaxDP=1.72D-02 DE=-3.30D-02 OVMax= 0.00D+00

 Cycle   4  Pass 1  IDiag  1:
 One-electron energy=-0.836517151078D+03
 RMSU=  5.96D-04    CP:  9.91D-01  1.17D+00  1.11D+00
 FoF2E:  PMaxA= 6.87D-03S
 Calling FoFJK with Acc= 0.00D+00 ICntrl=       0.
 FoF2E:  FMaxA= 1.30D-02S
 ChkPGP:  NMat=1 NMatS=1 NMatT=0
 EA= 0.236898197101E-03  0.00000000000      0.00000000000      0.00000000000    
 EB= 0.236898197101E-03  0.00000000000      0.00000000000      0.00000000000    
 ETotA= 0.236898197101E-03 ETotB= 0.236898197101E-03
 1/2 <PG(P)>=           0.000236898197
 IMat=  1 1/2 <PG(P)>=         389.174226591389
 IMat=  1 EOne=-0.836517151078D+03 ETwo= 0.389174226591D+03 Energy=-0.447342924487D+03
 1/2 <PG(P)>=         389.174226591389
 E= -103.626676881816     Delta-E=       -0.005223019634 Rises=F Damp=F
 DIIS: error= 9.60D-04 at cycle   4 NSaved=   4.
 B matrix at iteration          4
                 1             2             3             4             5 
      1   0.000000D+00 -0.100000D+01 -0.100000D+01 -0.100000D+01 -0.100000D+01
      2  -0.100000D+01 -0.160202D+00 -0.130487D-01 -0.135872D-01 -0.883041D-03
      3  -0.100000D+01 -0.130487D-01 -0.154586D-01  0.190293D-03 -0.612977D-03
      4  -0.100000D+01 -0.135872D-01  0.190293D-03 -0.196779D-02 -0.144649D-03
      5  -0.100000D+01 -0.883041D-03 -0.612977D-03 -0.144649D-03 -0.981304D-04
 Tr matrix at iteration          4
                 1             2             3             4             5 
      1  -0.103621D+03  0.000000D+00  0.000000D+00  0.000000D+00  0.000000D+00
      2   0.000000D+00 -0.290113D+02 -0.291939D+02 -0.291791D+02 -0.291727D+02
      3   0.000000D+00 -0.287785D+02 -0.289993D+02 -0.290151D+02 -0.290128D+02
      4   0.100000D+01 -0.288082D+02 -0.290597D+02 -0.290768D+02 -0.290790D+02
      5   0.000000D+00 -0.288041D+02 -0.290596D+02 -0.290813D+02 -0.290843D+02
 BE matrix at iteration          4
                 1             2             3             4             5 
      1   0.000000D+00 -0.100000D+01 -0.100000D+01 -0.100000D+01 -0.100000D+01
      2  -0.100000D+01  0.000000D+00 -0.382350D-01 -0.100788D+00 -0.118893D+00
      3  -0.100000D+01 -0.382350D-01  0.000000D+00 -0.137718D-02 -0.112627D-01
      4  -0.100000D+01 -0.100788D+00 -0.137718D-02  0.000000D+00 -0.808850D-03
      5  -0.100000D+01 -0.118893D+00 -0.112627D-01 -0.808850D-03  0.000000D+00
 NSaved= 4 IEnMin= 4 EnMin= -103.626676881816     IErMin= 4 ErrMin= 9.60D-04
 ErrMax= 9.60D-04  0.00D+00 EMaxC= 1.00D-01 BMatC= 9.81D-05 BMatP= 1.97D-03
 IDIUse=3 WtCom= 9.90D-01 WtEn= 9.60D-03
 Inv2:  IOpt= 1 Iter= 1 AM= 4.80D-13 Conv= 1.00D-12.
  NMat       2 lam      0.000000      B12    -0.038235
  NMat       3 lam      0.000000      B12    -0.001377
  NMat       4 lam      0.000000      B12    -0.000809
 UpdtCf It   0X -103.6266769      0.00000000  0.00000000  0.00000000  1.00000000
  NMat       3 lam      0.000000      B12    -0.000809
  NMat       2 lam      0.000000      B12    -0.011263
  NMat       1 lam      0.000000      B12    -0.118893
 UpdtCf It   0Y -103.6266769      0.00000000  0.00000000  0.00000000  1.00000000
 EnCoef: B12 -0.8088497D-03 lambda  0.000000
  NMat       1 lam      0.000000      B12    -0.118893
  NMat       2 lam      0.000000      B12    -0.011263
  NMat       3 lam      0.000000      B12    -0.000809
  NMat       4 lam      0.000000      B12     0.000000
 UpdtCf It   1F -103.6266769      0.00000000  0.00000000  0.00000000  1.00000000
  NMat       4 lam      0.000000      B12     0.000000
  NMat       3 lam      0.000000      B12    -0.000809
  NMat       2 lam      0.000000      B12    -0.011263
  NMat       1 lam      0.000000      B12    -0.118893
 UpdtCf It   1B -103.6266769      0.00000000  0.00000000  0.00000000  1.00000000
 Eold -103.6214538622     Efwd -103.6266768818     Ebck -103.6266768818    
 Coeff-Com:  0.501D-02-0.449D-01-0.833D-01 0.112D+01
 Coeff-En:   0.000D+00 0.000D+00 0.000D+00 0.100D+01
 Coeff:      0.496D-02-0.445D-01-0.825D-01 0.112D+01
 NOrbs=    69 LenY=   104841108 NE2=     1519436 LScr= 7
 RMSDP=4.45D-04 MaxDP=5.30D-03 DE=-5.22D-03 OVMax= 0.00D+00

 Cycle   5  Pass 1  IDiag  1:
 One-electron energy=-0.836529998507D+03
 RMSU=  2.25D-04    CP:  9.90D-01  1.18D+00  1.23D+00  1.31D+00
 FoF2E:  PMaxA= 2.44D-03S
 Calling FoFJK with Acc= 0.00D+00 ICntrl=       0.
 FoF2E:  FMaxA= 2.75D-03S
 ChkPGP:  NMat=1 NMatS=1 NMatT=0
 EA= 0.189492002356E-04  0.00000000000      0.00000000000      0.00000000000    
 EB= 0.189492002356E-04  0.00000000000      0.00000000000      0.00000000000    
 ETotA= 0.189492002356E-04 ETotB= 0.189492002356E-04
 1/2 <PG(P)>=           0.000018949200
 IMat=  1 1/2 <PG(P)>=         389.186557007262
 IMat=  1 EOne=-0.836529998507D+03 ETwo= 0.389186557007D+03 Energy=-0.447343441500D+03
 1/2 <PG(P)>=         389.186557007262
 E= -103.627193894737     Delta-E=       -0.000517012921 Rises=F Damp=F
 DIIS: error= 4.21D-04 at cycle   5 NSaved=   5.
 B matrix at iteration          5
                 1             2             3             4             5 
      1   0.000000D+00 -0.100000D+01 -0.100000D+01 -0.100000D+01 -0.100000D+01
      2  -0.100000D+01 -0.160202D+00 -0.130487D-01 -0.135872D-01 -0.883041D-03
      3  -0.100000D+01 -0.130487D-01 -0.154586D-01  0.190293D-03 -0.612977D-03
      4  -0.100000D+01 -0.135872D-01  0.190293D-03 -0.196779D-02 -0.144649D-03
      5  -0.100000D+01 -0.883041D-03 -0.612977D-03 -0.144649D-03 -0.981304D-04
      6  -0.100000D+01 -0.451203D-03  0.449594D-04 -0.145453D-03 -0.182473D-04
                 6 
      1  -0.100000D+01
      2  -0.451203D-03
      3   0.449594D-04
      4  -0.145453D-03
      5  -0.182473D-04
      6  -0.201459D-04
 Tr matrix at iteration          5
                 1             2             3             4             5 
      1  -0.103627D+03  0.000000D+00  0.000000D+00  0.000000D+00  0.000000D+00
      2   0.000000D+00 -0.290113D+02 -0.291939D+02 -0.291791D+02 -0.291727D+02
      3   0.000000D+00 -0.287785D+02 -0.289993D+02 -0.290151D+02 -0.290128D+02
      4   0.000000D+00 -0.288082D+02 -0.290597D+02 -0.290768D+02 -0.290790D+02
      5   0.100000D+01 -0.288041D+02 -0.290596D+02 -0.290813D+02 -0.290843D+02
      6   0.000000D+00 -0.287942D+02 -0.290521D+02 -0.290745D+02 -0.290781D+02
                 6 
      1   0.000000D+00
      2  -0.291692D+02
      3  -0.290116D+02
      4  -0.290786D+02
      5  -0.290845D+02
      6  -0.290784D+02
 BE matrix at iteration          5
                 1             2             3             4             5 
      1   0.000000D+00 -0.100000D+01 -0.100000D+01 -0.100000D+01 -0.100000D+01
      2  -0.100000D+01  0.000000D+00 -0.382350D-01 -0.100788D+00 -0.118893D+00
      3  -0.100000D+01 -0.382350D-01  0.000000D+00 -0.137718D-02 -0.112627D-01
      4  -0.100000D+01 -0.100788D+00 -0.137718D-02  0.000000D+00 -0.808850D-03
      5  -0.100000D+01 -0.118893D+00 -0.112627D-01 -0.808850D-03  0.000000D+00
      6  -0.100000D+01 -0.126340D+00 -0.140549D-01 -0.216111D-02 -0.191040D-03
                 6 
      1  -0.100000D+01
      2  -0.126340D+00
      3  -0.140549D-01
      4  -0.216111D-02
      5  -0.191040D-03
      6   0.000000D+00
 NSaved= 5 IEnMin= 5 EnMin= -103.627193894737     IErMin= 5 ErrMin= 4.21D-04
 ErrMax= 4.21D-04  0.00D+00 EMaxC= 1.00D-01 BMatC= 2.01D-05 BMatP= 9.81D-05
 IDIUse=3 WtCom= 9.96D-01 WtEn= 4.21D-03
 Inv2:  IOpt= 1 Iter= 1 AM= 3.75D-12 Conv= 1.00D-12.
 Inv2:  IOpt= 1 Iter= 2 AM= 7.70D-28 Conv= 1.00D-12.
  NMat       2 lam      0.000000      B12    -0.038235
  NMat       3 lam      0.000000      B12    -0.001377
  NMat       4 lam      0.000000      B12    -0.000809
  NMat       5 lam      0.000000      B12    -0.000191
 UpdtCf It   0X -103.6271939      0.00000000  0.00000000  0.00000000  0.00000000  1.00000000
  NMat       4 lam      0.000000      B12    -0.000191
  NMat       3 lam      0.000000      B12    -0.002161
  NMat       2 lam      0.000000      B12    -0.014055
  NMat       1 lam      0.000000      B12    -0.126340
 UpdtCf It   0Y -103.6271939      0.00000000  0.00000000  0.00000000  0.00000000  1.00000000
 EnCoef: B12 -0.1910398D-03 lambda  0.000000
  NMat       1 lam      0.000000      B12    -0.126340
  NMat       2 lam      0.000000      B12    -0.014055
  NMat       3 lam      0.000000      B12    -0.002161
  NMat       4 lam      0.000000      B12    -0.000191
  NMat       5 lam      0.000000      B12     0.000000
 UpdtCf It   1F -103.6271939      0.00000000  0.00000000  0.00000000  0.00000000  1.00000000
  NMat       5 lam      0.000000      B12     0.000000
  NMat       4 lam      0.000000      B12    -0.000191
  NMat       3 lam      0.000000      B12    -0.002161
  NMat       2 lam      0.000000      B12    -0.014055
  NMat       1 lam      0.000000      B12    -0.126340
 UpdtCf It   1B -103.6271939      0.00000000  0.00000000  0.00000000  0.00000000  1.00000000
 Eold -103.6266768818     Efwd -103.6271938947     Ebck -103.6271938947    
 Coeff-Com:  0.109D-01-0.919D-02-0.159D+00 0.418D-01 0.112D+01
 Coeff-En:   0.000D+00 0.000D+00 0.000D+00 0.000D+00 0.100D+01
 Coeff:      0.108D-01-0.915D-02-0.158D+00 0.416D-01 0.111D+01
 NOrbs=    69 LenY=   104841108 NE2=     1519436 LScr= 7
 RMSDP=1.97D-04 MaxDP=2.49D-03 DE=-5.17D-04 OVMax= 0.00D+00

 Cycle   6  Pass 1  IDiag  1:
 One-electron energy=-0.836532239807D+03
 RMSU=  6.81D-05    CP:  9.90D-01  1.18D+00  1.27D+00  1.51D+00  1.28D+00
 FoF2E:  PMaxA= 8.98D-04S
 Calling FoFJK with Acc= 0.00D+00 ICntrl=       0.
 FoF2E:  FMaxA= 1.24D-03S
 ChkPGP:  NMat=1 NMatS=1 NMatT=0
 EA= 0.123614694167E-05  0.00000000000      0.00000000000      0.00000000000    
 EB= 0.123614694167E-05  0.00000000000      0.00000000000      0.00000000000    
 ETotA= 0.123614694167E-05 ETotB= 0.123614694167E-05
 1/2 <PG(P)>=           0.000001236147
 IMat=  1 1/2 <PG(P)>=         389.188717418453
 IMat=  1 EOne=-0.836532239807D+03 ETwo= 0.389188717418D+03 Energy=-0.447343522388D+03
 1/2 <PG(P)>=         389.188717418453
 E= -103.627274783462     Delta-E=       -0.000080888726 Rises=F Damp=F
 DIIS: error= 1.29D-04 at cycle   6 NSaved=   6.
 B matrix at iteration          6
                 1             2             3             4             5 
      1   0.000000D+00 -0.100000D+01 -0.100000D+01 -0.100000D+01 -0.100000D+01
      2  -0.100000D+01 -0.160202D+00 -0.130487D-01 -0.135872D-01 -0.883041D-03
      3  -0.100000D+01 -0.130487D-01 -0.154586D-01  0.190293D-03 -0.612977D-03
      4  -0.100000D+01 -0.135872D-01  0.190293D-03 -0.196779D-02 -0.144649D-03
      5  -0.100000D+01 -0.883041D-03 -0.612977D-03 -0.144649D-03 -0.981304D-04
      6  -0.100000D+01 -0.451203D-03  0.449594D-04 -0.145453D-03 -0.182473D-04
      7  -0.100000D+01 -0.151890D-03  0.601649D-04 -0.329489D-04 -0.319571D-05
                 6             7 
      1  -0.100000D+01 -0.100000D+01
      2  -0.451203D-03 -0.151890D-03
      3   0.449594D-04  0.601649D-04
      4  -0.145453D-03 -0.329489D-04
      5  -0.182473D-04 -0.319571D-05
      6  -0.201459D-04 -0.357038D-05
      7  -0.357038D-05 -0.160172D-05
 Tr matrix at iteration          6
                 1             2             3             4             5 
      1  -0.103627D+03  0.000000D+00  0.000000D+00  0.000000D+00  0.000000D+00
      2   0.000000D+00 -0.290113D+02 -0.291939D+02 -0.291791D+02 -0.291727D+02
      3   0.000000D+00 -0.287785D+02 -0.289993D+02 -0.290151D+02 -0.290128D+02
      4   0.000000D+00 -0.288082D+02 -0.290597D+02 -0.290768D+02 -0.290790D+02
      5   0.000000D+00 -0.288041D+02 -0.290596D+02 -0.290813D+02 -0.290843D+02
      6   0.100000D+01 -0.287942D+02 -0.290521D+02 -0.290745D+02 -0.290781D+02
      7   0.000000D+00 -0.287917D+02 -0.290502D+02 -0.290731D+02 -0.290769D+02
                 6             7 
      1   0.000000D+00  0.000000D+00
      2  -0.291692D+02 -0.291679D+02
      3  -0.290116D+02 -0.290109D+02
      4  -0.290786D+02 -0.290783D+02
      5  -0.290845D+02 -0.290844D+02
      6  -0.290784D+02 -0.290785D+02
      7  -0.290773D+02 -0.290774D+02
 BE matrix at iteration          6
                 1             2             3             4             5 
      1   0.000000D+00 -0.100000D+01 -0.100000D+01 -0.100000D+01 -0.100000D+01
      2  -0.100000D+01  0.000000D+00 -0.382350D-01 -0.100788D+00 -0.118893D+00
      3  -0.100000D+01 -0.382350D-01  0.000000D+00 -0.137718D-02 -0.112627D-01
      4  -0.100000D+01 -0.100788D+00 -0.137718D-02  0.000000D+00 -0.808850D-03
      5  -0.100000D+01 -0.118893D+00 -0.112627D-01 -0.808850D-03  0.000000D+00
      6  -0.100000D+01 -0.126340D+00 -0.140549D-01 -0.216111D-02 -0.191040D-03
      7  -0.100000D+01 -0.129142D+00 -0.155545D-01 -0.279973D-02 -0.448930D-03
                 6             7 
      1  -0.100000D+01 -0.100000D+01
      2  -0.126340D+00 -0.129142D+00
      3  -0.140549D-01 -0.155545D-01
      4  -0.216111D-02 -0.279973D-02
      5  -0.191040D-03 -0.448930D-03
      6   0.000000D+00 -0.462507D-04
      7  -0.462507D-04  0.000000D+00
 NSaved= 6 IEnMin= 6 EnMin= -103.627274783462     IErMin= 6 ErrMin= 1.29D-04
 ErrMax= 1.29D-04  0.00D+00 EMaxC= 1.00D-01 BMatC= 1.60D-06 BMatP= 2.01D-05
 IDIUse=3 WtCom= 9.99D-01 WtEn= 1.29D-03
 Inv2:  IOpt= 1 Iter= 1 AM= 4.21D-10 Conv= 1.00D-12.
 Inv2:  IOpt= 1 Iter= 2 AM= 8.81D-25 Conv= 1.00D-12.
  NMat       2 lam      0.000000      B12    -0.038235
  NMat       3 lam      0.000000      B12    -0.001377
  NMat       4 lam      0.000000      B12    -0.000809
  NMat       5 lam      0.000000      B12    -0.000191
  NMat       6 lam      0.000000      B12    -0.000046
 UpdtCf It   0X -103.6272748      0.00000000  0.00000000  0.00000000  0.00000000  0.00000000  1.00000000
  NMat       5 lam      0.000000      B12    -0.000046
  NMat       4 lam      0.000000      B12    -0.000449
  NMat       3 lam      0.000000      B12    -0.002800
  NMat       2 lam      0.000000      B12    -0.015555
  NMat       1 lam      0.000000      B12    -0.129142
 UpdtCf It   0Y -103.6272748      0.00000000  0.00000000  0.00000000  0.00000000  0.00000000  1.00000000
 EnCoef: B12 -0.4625066D-04 lambda  0.000000
  NMat       1 lam      0.000000      B12    -0.129142
  NMat       2 lam      0.000000      B12    -0.015555
  NMat       3 lam      0.000000      B12    -0.002800
  NMat       4 lam      0.000000      B12    -0.000449
  NMat       5 lam      0.000000      B12    -0.000046
  NMat       6 lam      0.000000      B12     0.000000
 UpdtCf It   1F -103.6272748      0.00000000  0.00000000  0.00000000  0.00000000  0.00000000  1.00000000
  NMat       6 lam      0.000000      B12     0.000000
  NMat       5 lam      0.000000      B12    -0.000046
  NMat       4 lam      0.000000      B12    -0.000449
  NMat       3 lam      0.000000      B12    -0.002800
  NMat       2 lam      0.000000      B12    -0.015555
  NMat       1 lam      0.000000      B12    -0.129142
 UpdtCf It   1B -103.6272748      0.00000000  0.00000000  0.00000000  0.00000000  0.00000000  1.00000000
 Eold -103.6271938947     Efwd -103.6272747835     Ebck -103.6272747835    
 Coeff-Com: -0.517D-03 0.625D-02-0.802D-02-0.444D-01-0.295D-01 0.108D+01
 Coeff-En:   0.000D+00 0.000D+00 0.000D+00 0.000D+00 0.000D+00 0.100D+01
 Coeff:     -0.516D-03 0.624D-02-0.801D-02-0.444D-01-0.294D-01 0.108D+01
 NOrbs=    69 LenY=   104841108 NE2=     1519436 LScr= 7
 RMSDP=5.04D-05 MaxDP=5.00D-04 DE=-8.09D-05 OVMax= 0.00D+00

 Cycle   7  Pass 1  IDiag  1:
 One-electron energy=-0.836535495298D+03
 RMSU=  2.52D-05    CP:  9.90D-01  1.18D+00  1.28D+00  1.54D+00  1.40D+00
                    CP:  1.31D+00
 FoF2E:  PMaxA= 5.14D-04S
 Calling FoFJK with Acc= 0.00D+00 ICntrl=       0.
 FoF2E:  FMaxA= 4.78D-04S
 ChkPGP:  NMat=1 NMatS=1 NMatT=0
 EA= 0.673163184593E-06  0.00000000000      0.00000000000      0.00000000000    
 EB= 0.673163184593E-06  0.00000000000      0.00000000000      0.00000000000    
 ETotA= 0.673163184593E-06 ETotB= 0.673163184593E-06
 1/2 <PG(P)>=           0.000000673163
 IMat=  1 1/2 <PG(P)>=         389.191967126449
 IMat=  1 EOne=-0.836535495298D+03 ETwo= 0.389191967126D+03 Energy=-0.447343528172D+03
 1/2 <PG(P)>=         389.191967126449
 E= -103.627280566945     Delta-E=       -0.000005783483 Rises=F Damp=F
 DIIS: error= 5.66D-05 at cycle   7 NSaved=   7.
 B matrix at iteration          7
                 1             2             3             4             5 
      1   0.000000D+00 -0.100000D+01 -0.100000D+01 -0.100000D+01 -0.100000D+01
      2  -0.100000D+01 -0.160202D+00 -0.130487D-01 -0.135872D-01 -0.883041D-03
      3  -0.100000D+01 -0.130487D-01 -0.154586D-01  0.190293D-03 -0.612977D-03
      4  -0.100000D+01 -0.135872D-01  0.190293D-03 -0.196779D-02 -0.144649D-03
      5  -0.100000D+01 -0.883041D-03 -0.612977D-03 -0.144649D-03 -0.981304D-04
      6  -0.100000D+01 -0.451203D-03  0.449594D-04 -0.145453D-03 -0.182473D-04
      7  -0.100000D+01 -0.151890D-03  0.601649D-04 -0.329489D-04 -0.319571D-05
      8  -0.100000D+01 -0.478451D-04  0.190971D-04 -0.904366D-05 -0.269816D-06
                 6             7             8 
      1  -0.100000D+01 -0.100000D+01 -0.100000D+01
      2  -0.451203D-03 -0.151890D-03 -0.478451D-04
      3   0.449594D-04  0.601649D-04  0.190971D-04
      4  -0.145453D-03 -0.329489D-04 -0.904366D-05
      5  -0.182473D-04 -0.319571D-05 -0.269816D-06
      6  -0.201459D-04 -0.357038D-05 -0.137432D-05
      7  -0.357038D-05 -0.160172D-05 -0.314759D-06
      8  -0.137432D-05 -0.314759D-06 -0.266790D-06
 Tr matrix at iteration          7
                 1             2             3             4             5 
      1  -0.103627D+03  0.000000D+00  0.000000D+00  0.000000D+00  0.000000D+00
      2   0.000000D+00 -0.290113D+02 -0.291939D+02 -0.291791D+02 -0.291727D+02
      3   0.000000D+00 -0.287785D+02 -0.289993D+02 -0.290151D+02 -0.290128D+02
      4   0.000000D+00 -0.288082D+02 -0.290597D+02 -0.290768D+02 -0.290790D+02
      5   0.000000D+00 -0.288041D+02 -0.290596D+02 -0.290813D+02 -0.290843D+02
      6   0.000000D+00 -0.287942D+02 -0.290521D+02 -0.290745D+02 -0.290781D+02
      7   0.100000D+01 -0.287917D+02 -0.290502D+02 -0.290731D+02 -0.290769D+02
      8   0.000000D+00 -0.287899D+02 -0.290485D+02 -0.290714D+02 -0.290752D+02
                 6             7             8 
      1   0.000000D+00  0.000000D+00  0.000000D+00
      2  -0.291692D+02 -0.291679D+02 -0.291677D+02
      3  -0.290116D+02 -0.290109D+02 -0.290108D+02
      4  -0.290786D+02 -0.290783D+02 -0.290783D+02
      5  -0.290845D+02 -0.290844D+02 -0.290844D+02
      6  -0.290784D+02 -0.290785D+02 -0.290785D+02
      7  -0.290773D+02 -0.290774D+02 -0.290774D+02
      8  -0.290757D+02 -0.290758D+02 -0.290758D+02
 BE matrix at iteration          7
                 1             2             3             4             5 
      1   0.000000D+00 -0.100000D+01 -0.100000D+01 -0.100000D+01 -0.100000D+01
      2  -0.100000D+01  0.000000D+00 -0.382350D-01 -0.100788D+00 -0.118893D+00
      3  -0.100000D+01 -0.382350D-01  0.000000D+00 -0.137718D-02 -0.112627D-01
      4  -0.100000D+01 -0.100788D+00 -0.137718D-02  0.000000D+00 -0.808850D-03
      5  -0.100000D+01 -0.118893D+00 -0.112627D-01 -0.808850D-03  0.000000D+00
      6  -0.100000D+01 -0.126340D+00 -0.140549D-01 -0.216111D-02 -0.191040D-03
      7  -0.100000D+01 -0.129142D+00 -0.155545D-01 -0.279973D-02 -0.448930D-03
      8  -0.100000D+01 -0.129485D+00 -0.158149D-01 -0.292068D-02 -0.510937D-03
                 6             7             8 
      1  -0.100000D+01 -0.100000D+01 -0.100000D+01
      2  -0.126340D+00 -0.129142D+00 -0.129485D+00
      3  -0.140549D-01 -0.155545D-01 -0.158149D-01
      4  -0.216111D-02 -0.279973D-02 -0.292068D-02
      5  -0.191040D-03 -0.448930D-03 -0.510937D-03
      6   0.000000D+00 -0.462507D-04 -0.705626D-04
      7  -0.462507D-04  0.000000D+00 -0.246248D-05
      8  -0.705626D-04 -0.246248D-05  0.000000D+00
 NSaved= 7 IEnMin= 7 EnMin= -103.627280566945     IErMin= 7 ErrMin= 5.66D-05
 ErrMax= 5.66D-05  0.00D+00 EMaxC= 1.00D-01 BMatC= 2.67D-07 BMatP= 1.60D-06
 IDIUse=1 WtCom= 1.00D+00 WtEn= 0.00D+00
 Inv2:  IOpt= 1 Iter= 1 AM= 6.02D-10 Conv= 1.00D-12.
 Inv2:  IOpt= 1 Iter= 2 AM= 2.16D-24 Conv= 1.00D-12.
 Coeff-Com: -0.184D-02 0.362D-02 0.191D-01-0.955D-02-0.176D+00 0.196D+00
 Coeff-Com:  0.969D+00
 Coeff-En:   0.000D+00 0.000D+00 0.000D+00 0.000D+00 0.000D+00 0.000D+00
 Coeff-En:   0.000D+00
 Coeff:     -0.184D-02 0.362D-02 0.191D-01-0.955D-02-0.176D+00 0.196D+00
 Coeff:      0.969D+00
 NOrbs=    69 LenY=   104841108 NE2=     1519436 LScr= 7
 RMSDP=2.06D-05 MaxDP=2.04D-04 DE=-5.78D-06 OVMax= 0.00D+00

 Cycle   8  Pass 1  IDiag  1:
 One-electron energy=-0.836536405779D+03
 RMSU=  7.19D-06    CP:  9.90D-01  1.18D+00  1.28D+00  1.55D+00  1.43D+00
                    CP:  1.53D+00  1.14D+00
 FoF2E:  PMaxA= 8.54D-05S
 Calling FoFJK with Acc= 0.00D+00 ICntrl=       0.
 FoF2E:  FMaxA= 1.86D-04S
 ChkPGP:  NMat=1 NMatS=1 NMatT=0
 EA= 0.364578659746E-07  0.00000000000      0.00000000000      0.00000000000    
 EB= 0.364578659746E-07  0.00000000000      0.00000000000      0.00000000000    
 ETotA= 0.364578659746E-07 ETotB= 0.364578659746E-07
 1/2 <PG(P)>=           0.000000036458
 IMat=  1 1/2 <PG(P)>=         389.192876659991
 IMat=  1 EOne=-0.836536405779D+03 ETwo= 0.389192876660D+03 Energy=-0.447343529119D+03
 1/2 <PG(P)>=         389.192876659991
 E= -103.627281514311     Delta-E=       -0.000000947367 Rises=F Damp=F
 DIIS: error= 1.11D-05 at cycle   8 NSaved=   8.
 B matrix at iteration          8
                 1             2             3             4             5 
      1   0.000000D+00 -0.100000D+01 -0.100000D+01 -0.100000D+01 -0.100000D+01
      2  -0.100000D+01 -0.160202D+00 -0.130487D-01 -0.135872D-01 -0.883041D-03
      3  -0.100000D+01 -0.130487D-01 -0.154586D-01  0.190293D-03 -0.612977D-03
      4  -0.100000D+01 -0.135872D-01  0.190293D-03 -0.196779D-02 -0.144649D-03
      5  -0.100000D+01 -0.883041D-03 -0.612977D-03 -0.144649D-03 -0.981304D-04
      6  -0.100000D+01 -0.451203D-03  0.449594D-04 -0.145453D-03 -0.182473D-04
      7  -0.100000D+01 -0.151890D-03  0.601649D-04 -0.329489D-04 -0.319571D-05
      8  -0.100000D+01 -0.478451D-04  0.190971D-04 -0.904366D-05 -0.269816D-06
      9  -0.100000D+01 -0.101009D-04  0.397829D-05 -0.154476D-05 -0.125959D-06
                 6             7             8             9 
      1  -0.100000D+01 -0.100000D+01 -0.100000D+01 -0.100000D+01
      2  -0.451203D-03 -0.151890D-03 -0.478451D-04 -0.101009D-04
      3   0.449594D-04  0.601649D-04  0.190971D-04  0.397829D-05
      4  -0.145453D-03 -0.329489D-04 -0.904366D-05 -0.154476D-05
      5  -0.182473D-04 -0.319571D-05 -0.269816D-06 -0.125959D-06
      6  -0.201459D-04 -0.357038D-05 -0.137432D-05 -0.184751D-06
      7  -0.357038D-05 -0.160172D-05 -0.314759D-06 -0.115637D-06
      8  -0.137432D-05 -0.314759D-06 -0.266790D-06 -0.340294D-07
      9  -0.184751D-06 -0.115637D-06 -0.340294D-07 -0.141315D-07
 Tr matrix at iteration          8
                 1             2             3             4             5 
      1  -0.103627D+03  0.000000D+00  0.000000D+00  0.000000D+00  0.000000D+00
      2   0.000000D+00 -0.290113D+02 -0.291939D+02 -0.291791D+02 -0.291727D+02
      3   0.000000D+00 -0.287785D+02 -0.289993D+02 -0.290151D+02 -0.290128D+02
      4   0.000000D+00 -0.288082D+02 -0.290597D+02 -0.290768D+02 -0.290790D+02
      5   0.000000D+00 -0.288041D+02 -0.290596D+02 -0.290813D+02 -0.290843D+02
      6   0.000000D+00 -0.287942D+02 -0.290521D+02 -0.290745D+02 -0.290781D+02
      7   0.100000D+01 -0.287917D+02 -0.290502D+02 -0.290731D+02 -0.290769D+02
      8   0.000000D+00 -0.287899D+02 -0.290485D+02 -0.290714D+02 -0.290752D+02
      9   0.000000D+00 -0.287894D+02 -0.290480D+02 -0.290709D+02 -0.290748D+02
                 6             7             8             9 
      1   0.000000D+00  0.000000D+00  0.000000D+00  0.000000D+00
      2  -0.291692D+02 -0.291679D+02 -0.291677D+02 -0.291677D+02
      3  -0.290116D+02 -0.290109D+02 -0.290108D+02 -0.290108D+02
      4  -0.290786D+02 -0.290783D+02 -0.290783D+02 -0.290783D+02
      5  -0.290845D+02 -0.290844D+02 -0.290844D+02 -0.290844D+02
      6  -0.290784D+02 -0.290785D+02 -0.290785D+02 -0.290784D+02
      7  -0.290773D+02 -0.290774D+02 -0.290774D+02 -0.290774D+02
      8  -0.290757D+02 -0.290758D+02 -0.290758D+02 -0.290758D+02
      9  -0.290752D+02 -0.290753D+02 -0.290753D+02 -0.290753D+02
 BE matrix at iteration          8
                 1             2             3             4             5 
      1   0.000000D+00 -0.100000D+01 -0.100000D+01 -0.100000D+01 -0.100000D+01
      2  -0.100000D+01  0.000000D+00 -0.382350D-01 -0.100788D+00 -0.118893D+00
      3  -0.100000D+01 -0.382350D-01  0.000000D+00 -0.137718D-02 -0.112627D-01
      4  -0.100000D+01 -0.100788D+00 -0.137718D-02  0.000000D+00 -0.808850D-03
      5  -0.100000D+01 -0.118893D+00 -0.112627D-01 -0.808850D-03  0.000000D+00
      6  -0.100000D+01 -0.126340D+00 -0.140549D-01 -0.216111D-02 -0.191040D-03
      7  -0.100000D+01 -0.129142D+00 -0.155545D-01 -0.279973D-02 -0.448930D-03
      8  -0.100000D+01 -0.129485D+00 -0.158149D-01 -0.292068D-02 -0.510937D-03
      9  -0.100000D+01 -0.129556D+00 -0.158864D-01 -0.295649D-02 -0.533228D-03
                 6             7             8             9 
      1  -0.100000D+01 -0.100000D+01 -0.100000D+01 -0.100000D+01
      2  -0.126340D+00 -0.129142D+00 -0.129485D+00 -0.129556D+00
      3  -0.140549D-01 -0.155545D-01 -0.158149D-01 -0.158864D-01
      4  -0.216111D-02 -0.279973D-02 -0.292068D-02 -0.295649D-02
      5  -0.191040D-03 -0.448930D-03 -0.510937D-03 -0.533228D-03
      6   0.000000D+00 -0.462507D-04 -0.705626D-04 -0.799109D-04
      7  -0.462507D-04  0.000000D+00 -0.246248D-05 -0.536224D-05
      8  -0.705626D-04 -0.246248D-05  0.000000D+00 -0.408194D-06
      9  -0.799109D-04 -0.536224D-05 -0.408194D-06  0.000000D+00
 NSaved= 8 IEnMin= 8 EnMin= -103.627281514311     IErMin= 8 ErrMin= 1.11D-05
 ErrMax= 1.11D-05  0.00D+00 EMaxC= 1.00D-01 BMatC= 1.41D-08 BMatP= 2.67D-07
 IDIUse=1 WtCom= 1.00D+00 WtEn= 0.00D+00
 Inv2:  IOpt= 1 Iter= 1 AM= 2.53D-08 Conv= 1.00D-12.
 Inv2:  IOpt= 1 Iter= 2 AM= 1.28D-22 Conv= 1.00D-12.
 Coeff-Com:  0.257D-05-0.247D-03 0.435D-03 0.138D-02 0.949D-02-0.107D+00
 Coeff-Com: -0.893D-01 0.119D+01
 Coeff-En:   0.000D+00 0.000D+00 0.000D+00 0.000D+00 0.000D+00 0.000D+00
 Coeff-En:   0.000D+00 0.000D+00
 Coeff:      0.257D-05-0.247D-03 0.435D-03 0.138D-02 0.949D-02-0.107D+00
 Coeff:     -0.893D-01 0.119D+01
 NOrbs=    69 LenY=   104841108 NE2=     1519436 LScr= 7
 RMSDP=7.85D-06 MaxDP=7.51D-05 DE=-9.47D-07 OVMax= 0.00D+00

 Cycle   9  Pass 1  IDiag  1:
 One-electron energy=-0.836536832605D+03
 RMSU=  1.87D-06    CP:  9.90D-01  1.18D+00  1.28D+00  1.55D+00  1.44D+00
                    CP:  1.60D+00  1.30D+00  1.26D+00
 FoF2E:  PMaxA= 2.48D-05S
 Calling FoFJK with Acc= 0.00D+00 ICntrl=       0.
 FoF2E:  FMaxA= 2.79D-05S
 ChkPGP:  NMat=1 NMatS=1 NMatT=0
 EA=-0.283350709448E-09  0.00000000000      0.00000000000      0.00000000000    
 EB=-0.283350709448E-09  0.00000000000      0.00000000000      0.00000000000    
 ETotA=-0.283350709448E-09 ETotB=-0.283350709448E-09
 1/2 <PG(P)>=          -0.000000000283
 IMat=  1 1/2 <PG(P)>=         389.193303399710
 IMat=  1 EOne=-0.836536832605D+03 ETwo= 0.389193303400D+03 Energy=-0.447343529205D+03
 1/2 <PG(P)>=         389.193303399710
 E= -103.627281600697     Delta-E=       -0.000000086385 Rises=F Damp=F
 DIIS: error= 3.92D-06 at cycle   9 NSaved=   9.
 B matrix at iteration          9
                 1             2             3             4             5 
      1   0.000000D+00 -0.100000D+01 -0.100000D+01 -0.100000D+01 -0.100000D+01
      2  -0.100000D+01 -0.160202D+00 -0.130487D-01 -0.135872D-01 -0.883041D-03
      3  -0.100000D+01 -0.130487D-01 -0.154586D-01  0.190293D-03 -0.612977D-03
      4  -0.100000D+01 -0.135872D-01  0.190293D-03 -0.196779D-02 -0.144649D-03
      5  -0.100000D+01 -0.883041D-03 -0.612977D-03 -0.144649D-03 -0.981304D-04
      6  -0.100000D+01 -0.451203D-03  0.449594D-04 -0.145453D-03 -0.182473D-04
      7  -0.100000D+01 -0.151890D-03  0.601649D-04 -0.329489D-04 -0.319571D-05
      8  -0.100000D+01 -0.478451D-04  0.190971D-04 -0.904366D-05 -0.269816D-06
      9  -0.100000D+01 -0.101009D-04  0.397829D-05 -0.154476D-05 -0.125959D-06
     10  -0.100000D+01 -0.136162D-05  0.704903D-06 -0.201227D-06  0.786891D-08
                 6             7             8             9            10 
      1  -0.100000D+01 -0.100000D+01 -0.100000D+01 -0.100000D+01 -0.100000D+01
      2  -0.451203D-03 -0.151890D-03 -0.478451D-04 -0.101009D-04 -0.136162D-05
      3   0.449594D-04  0.601649D-04  0.190971D-04  0.397829D-05  0.704903D-06
      4  -0.145453D-03 -0.329489D-04 -0.904366D-05 -0.154476D-05 -0.201227D-06
      5  -0.182473D-04 -0.319571D-05 -0.269816D-06 -0.125959D-06  0.786891D-08
      6  -0.201459D-04 -0.357038D-05 -0.137432D-05 -0.184751D-06 -0.103474D-07
      7  -0.357038D-05 -0.160172D-05 -0.314759D-06 -0.115637D-06 -0.879092D-08
      8  -0.137432D-05 -0.314759D-06 -0.266790D-06 -0.340294D-07 -0.796104D-08
      9  -0.184751D-06 -0.115637D-06 -0.340294D-07 -0.141315D-07 -0.146493D-08
     10  -0.103474D-07 -0.879092D-08 -0.796104D-08 -0.146493D-08 -0.826724D-09
 Tr matrix at iteration          9
                 1             2             3             4             5 
      1  -0.103627D+03  0.000000D+00  0.000000D+00  0.000000D+00  0.000000D+00
      2   0.000000D+00 -0.290113D+02 -0.291939D+02 -0.291791D+02 -0.291727D+02
      3   0.000000D+00 -0.287785D+02 -0.289993D+02 -0.290151D+02 -0.290128D+02
      4   0.000000D+00 -0.288082D+02 -0.290597D+02 -0.290768D+02 -0.290790D+02
      5   0.000000D+00 -0.288041D+02 -0.290596D+02 -0.290813D+02 -0.290843D+02
      6   0.000000D+00 -0.287942D+02 -0.290521D+02 -0.290745D+02 -0.290781D+02
      7   0.100000D+01 -0.287917D+02 -0.290502D+02 -0.290731D+02 -0.290769D+02
      8   0.000000D+00 -0.287899D+02 -0.290485D+02 -0.290714D+02 -0.290752D+02
      9   0.000000D+00 -0.287894D+02 -0.290480D+02 -0.290709D+02 -0.290748D+02
     10   0.000000D+00 -0.287892D+02 -0.290478D+02 -0.290707D+02 -0.290745D+02
                 6             7             8             9            10 
      1   0.000000D+00  0.000000D+00  0.000000D+00  0.000000D+00  0.000000D+00
      2  -0.291692D+02 -0.291679D+02 -0.291677D+02 -0.291677D+02 -0.291677D+02
      3  -0.290116D+02 -0.290109D+02 -0.290108D+02 -0.290108D+02 -0.290108D+02
      4  -0.290786D+02 -0.290783D+02 -0.290783D+02 -0.290783D+02 -0.290783D+02
      5  -0.290845D+02 -0.290844D+02 -0.290844D+02 -0.290844D+02 -0.290844D+02
      6  -0.290784D+02 -0.290785D+02 -0.290785D+02 -0.290784D+02 -0.290784D+02
      7  -0.290773D+02 -0.290774D+02 -0.290774D+02 -0.290774D+02 -0.290774D+02
      8  -0.290757D+02 -0.290758D+02 -0.290758D+02 -0.290758D+02 -0.290758D+02
      9  -0.290752D+02 -0.290753D+02 -0.290753D+02 -0.290753D+02 -0.290753D+02
     10  -0.290750D+02 -0.290751D+02 -0.290751D+02 -0.290751D+02 -0.290751D+02
 BE matrix at iteration          9
                 1             2             3             4             5 
      1   0.000000D+00 -0.100000D+01 -0.100000D+01 -0.100000D+01 -0.100000D+01
      2  -0.100000D+01  0.000000D+00 -0.382350D-01 -0.100788D+00 -0.118893D+00
      3  -0.100000D+01 -0.382350D-01  0.000000D+00 -0.137718D-02 -0.112627D-01
      4  -0.100000D+01 -0.100788D+00 -0.137718D-02  0.000000D+00 -0.808850D-03
      5  -0.100000D+01 -0.118893D+00 -0.112627D-01 -0.808850D-03  0.000000D+00
      6  -0.100000D+01 -0.126340D+00 -0.140549D-01 -0.216111D-02 -0.191040D-03
      7  -0.100000D+01 -0.129142D+00 -0.155545D-01 -0.279973D-02 -0.448930D-03
      8  -0.100000D+01 -0.129485D+00 -0.158149D-01 -0.292068D-02 -0.510937D-03
      9  -0.100000D+01 -0.129556D+00 -0.158864D-01 -0.295649D-02 -0.533228D-03
     10  -0.100000D+01 -0.129572D+00 -0.159025D-01 -0.296699D-02 -0.539669D-03
                 6             7             8             9            10 
      1  -0.100000D+01 -0.100000D+01 -0.100000D+01 -0.100000D+01 -0.100000D+01
      2  -0.126340D+00 -0.129142D+00 -0.129485D+00 -0.129556D+00 -0.129572D+00
      3  -0.140549D-01 -0.155545D-01 -0.158149D-01 -0.158864D-01 -0.159025D-01
      4  -0.216111D-02 -0.279973D-02 -0.292068D-02 -0.295649D-02 -0.296699D-02
      5  -0.191040D-03 -0.448930D-03 -0.510937D-03 -0.533228D-03 -0.539669D-03
      6   0.000000D+00 -0.462507D-04 -0.705626D-04 -0.799109D-04 -0.831935D-04
      7  -0.462507D-04  0.000000D+00 -0.246248D-05 -0.536224D-05 -0.649677D-05
      8  -0.705626D-04 -0.246248D-05  0.000000D+00 -0.408194D-06 -0.827258D-06
      9  -0.799109D-04 -0.536224D-05 -0.408194D-06  0.000000D+00 -0.629189D-07
     10  -0.831935D-04 -0.649677D-05 -0.827258D-06 -0.629189D-07  0.000000D+00
 NSaved= 9 IEnMin= 9 EnMin= -103.627281600697     IErMin= 9 ErrMin= 3.92D-06
 ErrMax= 3.92D-06  0.00D+00 EMaxC= 1.00D-01 BMatC= 8.27D-10 BMatP= 1.41D-08
 IDIUse=1 WtCom= 1.00D+00 WtEn= 0.00D+00
 Inv2:  IOpt= 1 Iter= 1 AM= 1.50D-07 Conv= 1.00D-12.
 Inv2:  IOpt= 1 Iter= 2 AM= 3.95D-22 Conv= 1.00D-12.
 Coeff-Com:  0.133D-03-0.196D-03-0.159D-02 0.340D-03 0.147D-01-0.146D-01
 Coeff-Com: -0.794D-01 0.543D-01 0.103D+01
 Coeff-En:   0.000D+00 0.000D+00 0.000D+00 0.000D+00 0.000D+00 0.000D+00
 Coeff-En:   0.000D+00 0.000D+00 0.000D+00
 Coeff:      0.133D-03-0.196D-03-0.159D-02 0.340D-03 0.147D-01-0.146D-01
 Coeff:     -0.794D-01 0.543D-01 0.103D+01
 NOrbs=    69 LenY=   104841108 NE2=     1519436 LScr= 7
 RMSDP=1.24D-06 MaxDP=9.82D-06 DE=-8.64D-08 OVMax= 0.00D+00

 Cycle  10  Pass 1  IDiag  1:
 One-electron energy=-0.836536897030D+03
 RMSU=  4.32D-07    CP:  9.90D-01  1.18D+00  1.28D+00  1.55D+00  1.44D+00
                    CP:  1.61D+00  1.32D+00  1.35D+00  1.22D+00
 FoF2E:  PMaxA= 5.49D-06S
 Calling FoFJK with Acc= 0.00D+00 ICntrl=       0.
 FoF2E:  FMaxA= 7.31D-06S
 ChkPGP:  NMat=1 NMatS=1 NMatT=0
 EA= 0.129224312863E-09  0.00000000000      0.00000000000      0.00000000000    
 EB= 0.129224312863E-09  0.00000000000      0.00000000000      0.00000000000    
 ETotA= 0.129224312863E-09 ETotB= 0.129224312863E-09
 1/2 <PG(P)>=           0.000000000129
 IMat=  1 1/2 <PG(P)>=         389.193367821550
 IMat=  1 EOne=-0.836536897030D+03 ETwo= 0.389193367822D+03 Energy=-0.447343529209D+03
 1/2 <PG(P)>=         389.193367821550
 E= -103.627281603825     Delta-E=       -0.000000003128 Rises=F Damp=F
 DIIS: error= 7.88D-07 at cycle  10 NSaved=  10.
 B matrix at iteration         10
                 1             2             3             4             5 
      1   0.000000D+00 -0.100000D+01 -0.100000D+01 -0.100000D+01 -0.100000D+01
      2  -0.100000D+01 -0.160202D+00 -0.130487D-01 -0.135872D-01 -0.883041D-03
      3  -0.100000D+01 -0.130487D-01 -0.154586D-01  0.190293D-03 -0.612977D-03
      4  -0.100000D+01 -0.135872D-01  0.190293D-03 -0.196779D-02 -0.144649D-03
      5  -0.100000D+01 -0.883041D-03 -0.612977D-03 -0.144649D-03 -0.981304D-04
      6  -0.100000D+01 -0.451203D-03  0.449594D-04 -0.145453D-03 -0.182473D-04
      7  -0.100000D+01 -0.151890D-03  0.601649D-04 -0.329489D-04 -0.319571D-05
      8  -0.100000D+01 -0.478451D-04  0.190971D-04 -0.904366D-05 -0.269816D-06
      9  -0.100000D+01 -0.101009D-04  0.397829D-05 -0.154476D-05 -0.125959D-06
     10  -0.100000D+01 -0.136162D-05  0.704903D-06 -0.201227D-06  0.786891D-08
     11  -0.100000D+01 -0.611388D-06  0.168853D-06 -0.828026D-07  0.886888D-09
                 6             7             8             9            10 
      1  -0.100000D+01 -0.100000D+01 -0.100000D+01 -0.100000D+01 -0.100000D+01
      2  -0.451203D-03 -0.151890D-03 -0.478451D-04 -0.101009D-04 -0.136162D-05
      3   0.449594D-04  0.601649D-04  0.190971D-04  0.397829D-05  0.704903D-06
      4  -0.145453D-03 -0.329489D-04 -0.904366D-05 -0.154476D-05 -0.201227D-06
      5  -0.182473D-04 -0.319571D-05 -0.269816D-06 -0.125959D-06  0.786891D-08
      6  -0.201459D-04 -0.357038D-05 -0.137432D-05 -0.184751D-06 -0.103474D-07
      7  -0.357038D-05 -0.160172D-05 -0.314759D-06 -0.115637D-06 -0.879092D-08
      8  -0.137432D-05 -0.314759D-06 -0.266790D-06 -0.340294D-07 -0.796104D-08
      9  -0.184751D-06 -0.115637D-06 -0.340294D-07 -0.141315D-07 -0.146493D-08
     10  -0.103474D-07 -0.879092D-08 -0.796104D-08 -0.146493D-08 -0.826724D-09
     11  -0.427490D-08 -0.227924D-08 -0.102374D-08 -0.397964D-09 -0.102219D-09
                11 
      1  -0.100000D+01
      2  -0.611388D-06
      3   0.168853D-06
      4  -0.828026D-07
      5   0.886888D-09
      6  -0.427490D-08
      7  -0.227924D-08
      8  -0.102374D-08
      9  -0.397964D-09
     10  -0.102219D-09
     11  -0.393856D-10
 Tr matrix at iteration         10
                 1             2             3             4             5 
      1  -0.103627D+03  0.000000D+00  0.000000D+00  0.000000D+00  0.000000D+00
      2   0.000000D+00 -0.290113D+02 -0.291939D+02 -0.291791D+02 -0.291727D+02
      3   0.000000D+00 -0.287785D+02 -0.289993D+02 -0.290151D+02 -0.290128D+02
      4   0.000000D+00 -0.288082D+02 -0.290597D+02 -0.290768D+02 -0.290790D+02
      5   0.000000D+00 -0.288041D+02 -0.290596D+02 -0.290813D+02 -0.290843D+02
      6   0.000000D+00 -0.287942D+02 -0.290521D+02 -0.290745D+02 -0.290781D+02
      7   0.100000D+01 -0.287917D+02 -0.290502D+02 -0.290731D+02 -0.290769D+02
      8   0.000000D+00 -0.287899D+02 -0.290485D+02 -0.290714D+02 -0.290752D+02
      9   0.000000D+00 -0.287894D+02 -0.290480D+02 -0.290709D+02 -0.290748D+02
     10   0.000000D+00 -0.287892D+02 -0.290478D+02 -0.290707D+02 -0.290745D+02
     11   0.000000D+00 -0.287892D+02 -0.290477D+02 -0.290707D+02 -0.290745D+02
                 6             7             8             9            10 
      1   0.000000D+00  0.000000D+00  0.000000D+00  0.000000D+00  0.000000D+00
      2  -0.291692D+02 -0.291679D+02 -0.291677D+02 -0.291677D+02 -0.291677D+02
      3  -0.290116D+02 -0.290109D+02 -0.290108D+02 -0.290108D+02 -0.290108D+02
      4  -0.290786D+02 -0.290783D+02 -0.290783D+02 -0.290783D+02 -0.290783D+02
      5  -0.290845D+02 -0.290844D+02 -0.290844D+02 -0.290844D+02 -0.290844D+02
      6  -0.290784D+02 -0.290785D+02 -0.290785D+02 -0.290784D+02 -0.290784D+02
      7  -0.290773D+02 -0.290774D+02 -0.290774D+02 -0.290774D+02 -0.290774D+02
      8  -0.290757D+02 -0.290758D+02 -0.290758D+02 -0.290758D+02 -0.290758D+02
      9  -0.290752D+02 -0.290753D+02 -0.290753D+02 -0.290753D+02 -0.290753D+02
     10  -0.290750D+02 -0.290751D+02 -0.290751D+02 -0.290751D+02 -0.290751D+02
     11  -0.290750D+02 -0.290751D+02 -0.290751D+02 -0.290751D+02 -0.290751D+02
                11 
      1   0.000000D+00
      2  -0.291677D+02
      3  -0.290108D+02
      4  -0.290783D+02
      5  -0.290844D+02
      6  -0.290784D+02
      7  -0.290774D+02
      8  -0.290758D+02
      9  -0.290753D+02
     10  -0.290751D+02
     11  -0.290751D+02
 BE matrix at iteration         10
                 1             2             3             4             5 
      1   0.000000D+00 -0.100000D+01 -0.100000D+01 -0.100000D+01 -0.100000D+01
      2  -0.100000D+01  0.000000D+00 -0.382350D-01 -0.100788D+00 -0.118893D+00
      3  -0.100000D+01 -0.382350D-01  0.000000D+00 -0.137718D-02 -0.112627D-01
      4  -0.100000D+01 -0.100788D+00 -0.137718D-02  0.000000D+00 -0.808850D-03
      5  -0.100000D+01 -0.118893D+00 -0.112627D-01 -0.808850D-03  0.000000D+00
      6  -0.100000D+01 -0.126340D+00 -0.140549D-01 -0.216111D-02 -0.191040D-03
      7  -0.100000D+01 -0.129142D+00 -0.155545D-01 -0.279973D-02 -0.448930D-03
      8  -0.100000D+01 -0.129485D+00 -0.158149D-01 -0.292068D-02 -0.510937D-03
      9  -0.100000D+01 -0.129556D+00 -0.158864D-01 -0.295649D-02 -0.533228D-03
     10  -0.100000D+01 -0.129572D+00 -0.159025D-01 -0.296699D-02 -0.539669D-03
     11  -0.100000D+01 -0.129571D+00 -0.159030D-01 -0.296751D-02 -0.540156D-03
                 6             7             8             9            10 
      1  -0.100000D+01 -0.100000D+01 -0.100000D+01 -0.100000D+01 -0.100000D+01
      2  -0.126340D+00 -0.129142D+00 -0.129485D+00 -0.129556D+00 -0.129572D+00
      3  -0.140549D-01 -0.155545D-01 -0.158149D-01 -0.158864D-01 -0.159025D-01
      4  -0.216111D-02 -0.279973D-02 -0.292068D-02 -0.295649D-02 -0.296699D-02
      5  -0.191040D-03 -0.448930D-03 -0.510937D-03 -0.533228D-03 -0.539669D-03
      6   0.000000D+00 -0.462507D-04 -0.705626D-04 -0.799109D-04 -0.831935D-04
      7  -0.462507D-04  0.000000D+00 -0.246248D-05 -0.536224D-05 -0.649677D-05
      8  -0.705626D-04 -0.246248D-05  0.000000D+00 -0.408194D-06 -0.827258D-06
      9  -0.799109D-04 -0.536224D-05 -0.408194D-06  0.000000D+00 -0.629189D-07
     10  -0.831935D-04 -0.649677D-05 -0.827258D-06 -0.629189D-07  0.000000D+00
     11  -0.834928D-04 -0.664053D-05 -0.885752D-06 -0.830914D-07 -0.148547D-08
                11 
      1  -0.100000D+01
      2  -0.129571D+00
      3  -0.159030D-01
      4  -0.296751D-02
      5  -0.540156D-03
      6  -0.834928D-04
      7  -0.664053D-05
      8  -0.885752D-06
      9  -0.830914D-07
     10  -0.148547D-08
     11   0.000000D+00
 NSaved=10 IEnMin=10 EnMin= -103.627281603825     IErMin=10 ErrMin= 7.88D-07
 ErrMax= 7.88D-07  0.00D+00 EMaxC= 1.00D-01 BMatC= 3.94D-11 BMatP= 8.27D-10
 IDIUse=1 WtCom= 1.00D+00 WtEn= 0.00D+00
 Inv2:  IOpt= 1 Iter= 1 AM= 7.99D-06 Conv= 1.00D-12.
 Inv2:  IOpt= 1 Iter= 2 AM= 3.80D-19 Conv= 1.00D-12.
 Coeff-Com: -0.849D-05 0.338D-04 0.173D-04-0.112D-03-0.965D-03 0.575D-02
 Coeff-Com:  0.791D-02-0.593D-01-0.102D+00 0.115D+01
 Coeff-En:   0.000D+00 0.000D+00 0.000D+00 0.000D+00 0.000D+00 0.000D+00
 Coeff-En:   0.000D+00 0.000D+00 0.000D+00 0.000D+00
 Coeff:     -0.849D-05 0.338D-04 0.173D-04-0.112D-03-0.965D-03 0.575D-02
 Coeff:      0.791D-02-0.593D-01-0.102D+00 0.115D+01
 NOrbs=    69 LenY=   104841108 NE2=     1519436 LScr= 7
 RMSDP=3.32D-07 MaxDP=3.35D-06 DE=-3.13D-09 OVMax= 0.00D+00

 Cycle  11  Pass 1  IDiag  1:
 One-electron energy=-0.836536906427D+03
 RMSU=  1.20D-07    CP:  9.90D-01  1.18D+00  1.28D+00  1.55D+00  1.44D+00
                    CP:  1.61D+00  1.32D+00  1.36D+00  1.34D+00  1.27D+00
 FoF2E:  PMaxA= 1.00D-06S
 Calling FoFJK with Acc= 0.00D+00 ICntrl=       0.
 FoF2E:  FMaxA= 1.65D-06S
 ChkPGP:  NMat=1 NMatS=1 NMatT=0
 EA=-0.177182547845E-11  0.00000000000      0.00000000000      0.00000000000    
 EB=-0.177182547845E-11  0.00000000000      0.00000000000      0.00000000000    
 ETotA=-0.177182547845E-11 ETotB=-0.177182547845E-11
 1/2 <PG(P)>=          -0.000000000002
 IMat=  1 1/2 <PG(P)>=         389.193377218349
 IMat=  1 EOne=-0.836536906427D+03 ETwo= 0.389193377218D+03 Energy=-0.447343529209D+03
 1/2 <PG(P)>=         389.193377218349
 E= -103.627281604038     Delta-E=       -0.000000000213 Rises=F Damp=F
 DIIS: error= 2.96D-07 at cycle  11 NSaved=  11.
 B matrix at iteration         11
                 1             2             3             4             5 
      1   0.000000D+00 -0.100000D+01 -0.100000D+01 -0.100000D+01 -0.100000D+01
      2  -0.100000D+01 -0.160202D+00 -0.130487D-01 -0.135872D-01 -0.883041D-03
      3  -0.100000D+01 -0.130487D-01 -0.154586D-01  0.190293D-03 -0.612977D-03
      4  -0.100000D+01 -0.135872D-01  0.190293D-03 -0.196779D-02 -0.144649D-03
      5  -0.100000D+01 -0.883041D-03 -0.612977D-03 -0.144649D-03 -0.981304D-04
      6  -0.100000D+01 -0.451203D-03  0.449594D-04 -0.145453D-03 -0.182473D-04
      7  -0.100000D+01 -0.151890D-03  0.601649D-04 -0.329489D-04 -0.319571D-05
      8  -0.100000D+01 -0.478451D-04  0.190971D-04 -0.904366D-05 -0.269816D-06
      9  -0.100000D+01 -0.101009D-04  0.397829D-05 -0.154476D-05 -0.125959D-06
     10  -0.100000D+01 -0.136162D-05  0.704903D-06 -0.201227D-06  0.786891D-08
     11  -0.100000D+01 -0.611388D-06  0.168853D-06 -0.828026D-07  0.886888D-09
     12  -0.100000D+01  0.449664D-07 -0.144090D-07  0.132737D-07 -0.181497D-08
                 6             7             8             9            10 
      1  -0.100000D+01 -0.100000D+01 -0.100000D+01 -0.100000D+01 -0.100000D+01
      2  -0.451203D-03 -0.151890D-03 -0.478451D-04 -0.101009D-04 -0.136162D-05
      3   0.449594D-04  0.601649D-04  0.190971D-04  0.397829D-05  0.704903D-06
      4  -0.145453D-03 -0.329489D-04 -0.904366D-05 -0.154476D-05 -0.201227D-06
      5  -0.182473D-04 -0.319571D-05 -0.269816D-06 -0.125959D-06  0.786891D-08
      6  -0.201459D-04 -0.357038D-05 -0.137432D-05 -0.184751D-06 -0.103474D-07
      7  -0.357038D-05 -0.160172D-05 -0.314759D-06 -0.115637D-06 -0.879092D-08
      8  -0.137432D-05 -0.314759D-06 -0.266790D-06 -0.340294D-07 -0.796104D-08
      9  -0.184751D-06 -0.115637D-06 -0.340294D-07 -0.141315D-07 -0.146493D-08
     10  -0.103474D-07 -0.879092D-08 -0.796104D-08 -0.146493D-08 -0.826724D-09
     11  -0.427490D-08 -0.227924D-08 -0.102374D-08 -0.397964D-09 -0.102219D-09
     12   0.201727D-08  0.329283D-09  0.294130D-10  0.135592D-10 -0.309831D-10
                11            12 
      1  -0.100000D+01 -0.100000D+01
      2  -0.611388D-06  0.449664D-07
      3   0.168853D-06 -0.144090D-07
      4  -0.828026D-07  0.132737D-07
      5   0.886888D-09 -0.181497D-08
      6  -0.427490D-08  0.201727D-08
      7  -0.227924D-08  0.329283D-09
      8  -0.102374D-08  0.294130D-10
      9  -0.397964D-09  0.135592D-10
     10  -0.102219D-09 -0.309831D-10
     11  -0.393856D-10 -0.518062D-11
     12  -0.518062D-11 -0.393520D-11
 Tr matrix at iteration         11
                 1             2             3             4             5 
      1  -0.103627D+03  0.000000D+00  0.000000D+00  0.000000D+00  0.000000D+00
      2   0.000000D+00 -0.290113D+02 -0.291939D+02 -0.291791D+02 -0.291727D+02
      3   0.000000D+00 -0.287785D+02 -0.289993D+02 -0.290151D+02 -0.290128D+02
      4   0.000000D+00 -0.288082D+02 -0.290597D+02 -0.290768D+02 -0.290790D+02
      5   0.000000D+00 -0.288041D+02 -0.290596D+02 -0.290813D+02 -0.290843D+02
      6   0.000000D+00 -0.287942D+02 -0.290521D+02 -0.290745D+02 -0.290781D+02
      7   0.100000D+01 -0.287917D+02 -0.290502D+02 -0.290731D+02 -0.290769D+02
      8   0.000000D+00 -0.287899D+02 -0.290485D+02 -0.290714D+02 -0.290752D+02
      9   0.000000D+00 -0.287894D+02 -0.290480D+02 -0.290709D+02 -0.290748D+02
     10   0.000000D+00 -0.287892D+02 -0.290478D+02 -0.290707D+02 -0.290745D+02
     11   0.000000D+00 -0.287892D+02 -0.290477D+02 -0.290707D+02 -0.290745D+02
     12   0.000000D+00 -0.287892D+02 -0.290477D+02 -0.290707D+02 -0.290745D+02
                 6             7             8             9            10 
      1   0.000000D+00  0.000000D+00  0.000000D+00  0.000000D+00  0.000000D+00
      2  -0.291692D+02 -0.291679D+02 -0.291677D+02 -0.291677D+02 -0.291677D+02
      3  -0.290116D+02 -0.290109D+02 -0.290108D+02 -0.290108D+02 -0.290108D+02
      4  -0.290786D+02 -0.290783D+02 -0.290783D+02 -0.290783D+02 -0.290783D+02
      5  -0.290845D+02 -0.290844D+02 -0.290844D+02 -0.290844D+02 -0.290844D+02
      6  -0.290784D+02 -0.290785D+02 -0.290785D+02 -0.290784D+02 -0.290784D+02
      7  -0.290773D+02 -0.290774D+02 -0.290774D+02 -0.290774D+02 -0.290774D+02
      8  -0.290757D+02 -0.290758D+02 -0.290758D+02 -0.290758D+02 -0.290758D+02
      9  -0.290752D+02 -0.290753D+02 -0.290753D+02 -0.290753D+02 -0.290753D+02
     10  -0.290750D+02 -0.290751D+02 -0.290751D+02 -0.290751D+02 -0.290751D+02
     11  -0.290750D+02 -0.290751D+02 -0.290751D+02 -0.290751D+02 -0.290751D+02
     12  -0.290750D+02 -0.290751D+02 -0.290751D+02 -0.290751D+02 -0.290751D+02
                11            12 
      1   0.000000D+00  0.000000D+00
      2  -0.291677D+02 -0.291677D+02
      3  -0.290108D+02 -0.290108D+02
      4  -0.290783D+02 -0.290783D+02
      5  -0.290844D+02 -0.290844D+02
      6  -0.290784D+02 -0.290784D+02
      7  -0.290774D+02 -0.290774D+02
      8  -0.290758D+02 -0.290758D+02
      9  -0.290753D+02 -0.290753D+02
     10  -0.290751D+02 -0.290751D+02
     11  -0.290751D+02 -0.290751D+02
     12  -0.290751D+02 -0.290751D+02
 BE matrix at iteration         11
                 1             2             3             4             5 
      1   0.000000D+00 -0.100000D+01 -0.100000D+01 -0.100000D+01 -0.100000D+01
      2  -0.100000D+01  0.000000D+00 -0.382350D-01 -0.100788D+00 -0.118893D+00
      3  -0.100000D+01 -0.382350D-01  0.000000D+00 -0.137718D-02 -0.112627D-01
      4  -0.100000D+01 -0.100788D+00 -0.137718D-02  0.000000D+00 -0.808850D-03
      5  -0.100000D+01 -0.118893D+00 -0.112627D-01 -0.808850D-03  0.000000D+00
      6  -0.100000D+01 -0.126340D+00 -0.140549D-01 -0.216111D-02 -0.191040D-03
      7  -0.100000D+01 -0.129142D+00 -0.155545D-01 -0.279973D-02 -0.448930D-03
      8  -0.100000D+01 -0.129485D+00 -0.158149D-01 -0.292068D-02 -0.510937D-03
      9  -0.100000D+01 -0.129556D+00 -0.158864D-01 -0.295649D-02 -0.533228D-03
     10  -0.100000D+01 -0.129572D+00 -0.159025D-01 -0.296699D-02 -0.539669D-03
     11  -0.100000D+01 -0.129571D+00 -0.159030D-01 -0.296751D-02 -0.540156D-03
     12  -0.100000D+01 -0.129571D+00 -0.159033D-01 -0.296753D-02 -0.540232D-03
                 6             7             8             9            10 
      1  -0.100000D+01 -0.100000D+01 -0.100000D+01 -0.100000D+01 -0.100000D+01
      2  -0.126340D+00 -0.129142D+00 -0.129485D+00 -0.129556D+00 -0.129572D+00
      3  -0.140549D-01 -0.155545D-01 -0.158149D-01 -0.158864D-01 -0.159025D-01
      4  -0.216111D-02 -0.279973D-02 -0.292068D-02 -0.295649D-02 -0.296699D-02
      5  -0.191040D-03 -0.448930D-03 -0.510937D-03 -0.533228D-03 -0.539669D-03
      6   0.000000D+00 -0.462507D-04 -0.705626D-04 -0.799109D-04 -0.831935D-04
      7  -0.462507D-04  0.000000D+00 -0.246248D-05 -0.536224D-05 -0.649677D-05
      8  -0.705626D-04 -0.246248D-05  0.000000D+00 -0.408194D-06 -0.827258D-06
      9  -0.799109D-04 -0.536224D-05 -0.408194D-06  0.000000D+00 -0.629189D-07
     10  -0.831935D-04 -0.649677D-05 -0.827258D-06 -0.629189D-07  0.000000D+00
     11  -0.834928D-04 -0.664053D-05 -0.885752D-06 -0.830914D-07 -0.148547D-08
     12  -0.835330D-04 -0.666179D-05 -0.896350D-06 -0.870928D-07 -0.235689D-08
                11            12 
      1  -0.100000D+01 -0.100000D+01
      2  -0.129571D+00 -0.129571D+00
      3  -0.159030D-01 -0.159033D-01
      4  -0.296751D-02 -0.296753D-02
      5  -0.540156D-03 -0.540232D-03
      6  -0.834928D-04 -0.835330D-04
      7  -0.664053D-05 -0.666179D-05
      8  -0.885752D-06 -0.896350D-06
      9  -0.830914D-07 -0.870928D-07
     10  -0.148547D-08 -0.235689D-08
     11   0.000000D+00 -0.102649D-09
     12  -0.102649D-09  0.000000D+00
 NSaved=11 IEnMin=11 EnMin= -103.627281604038     IErMin=11 ErrMin= 2.96D-07
 ErrMax= 2.96D-07  0.00D+00 EMaxC= 1.00D-01 BMatC= 3.94D-12 BMatP= 3.94D-11
 IDIUse=1 WtCom= 1.00D+00 WtEn= 0.00D+00
 Inv2:  IOpt= 1 Iter= 1 AM= 9.70D-05 Conv= 1.00D-12.
 Inv2:  IOpt= 1 Iter= 2 AM= 6.32D-19 Conv= 1.00D-12.
 Coeff-Com: -0.486D-05 0.606D-05 0.690D-04-0.672D-04-0.359D-03-0.243D-03
 Coeff-Com:  0.241D-02 0.958D-02-0.680D-01-0.778D-01 0.113D+01
 Coeff-En:   0.000D+00 0.000D+00 0.000D+00 0.000D+00 0.000D+00 0.000D+00
 Coeff-En:   0.000D+00 0.000D+00 0.000D+00 0.000D+00 0.000D+00
 Coeff:     -0.486D-05 0.606D-05 0.690D-04-0.672D-04-0.359D-03-0.243D-03
 Coeff:      0.241D-02 0.958D-02-0.680D-01-0.778D-01 0.113D+01
 NOrbs=    69 LenY=   104841108 NE2=     1519436 LScr= 7
 RMSDP=8.76D-08 MaxDP=9.48D-07 DE=-2.13D-10 OVMax= 0.00D+00

 Cycle  12  Pass 1  IDiag  1:
 One-electron energy=-0.836536908297D+03
 RMSU=  3.22D-08    CP:  9.90D-01  1.18D+00  1.28D+00  1.55D+00  1.44D+00
                    CP:  1.61D+00  1.32D+00  1.36D+00  1.37D+00  1.38D+00
                    CP:  1.34D+00
 FoF2E:  PMaxA= 3.97D-07S
 Calling FoFJK with Acc= 0.00D+00 ICntrl=       0.
 FoF2E:  FMaxA= 4.45D-07S
 ChkPGP:  NMat=1 NMatS=1 NMatT=0
 EA= 0.842695175896E-12  0.00000000000      0.00000000000      0.00000000000    
 EB= 0.842695175896E-12  0.00000000000      0.00000000000      0.00000000000    
 ETotA= 0.842695175896E-12 ETotB= 0.842695175896E-12
 1/2 <PG(P)>=           0.000000000001
 IMat=  1 1/2 <PG(P)>=         389.193379087815
 IMat=  1 EOne=-0.836536908297D+03 ETwo= 0.389193379088D+03 Energy=-0.447343529209D+03
 1/2 <PG(P)>=         389.193379087815
 E= -103.627281604054     Delta-E=       -0.000000000016 Rises=F Damp=F
 DIIS: error= 7.64D-08 at cycle  12 NSaved=  12.
 B matrix at iteration         12
                 1             2             3             4             5 
      1   0.000000D+00 -0.100000D+01 -0.100000D+01 -0.100000D+01 -0.100000D+01
      2  -0.100000D+01 -0.160202D+00 -0.130487D-01 -0.135872D-01 -0.883041D-03
      3  -0.100000D+01 -0.130487D-01 -0.154586D-01  0.190293D-03 -0.612977D-03
      4  -0.100000D+01 -0.135872D-01  0.190293D-03 -0.196779D-02 -0.144649D-03
      5  -0.100000D+01 -0.883041D-03 -0.612977D-03 -0.144649D-03 -0.981304D-04
      6  -0.100000D+01 -0.451203D-03  0.449594D-04 -0.145453D-03 -0.182473D-04
      7  -0.100000D+01 -0.151890D-03  0.601649D-04 -0.329489D-04 -0.319571D-05
      8  -0.100000D+01 -0.478451D-04  0.190971D-04 -0.904366D-05 -0.269816D-06
      9  -0.100000D+01 -0.101009D-04  0.397829D-05 -0.154476D-05 -0.125959D-06
     10  -0.100000D+01 -0.136162D-05  0.704903D-06 -0.201227D-06  0.786891D-08
     11  -0.100000D+01 -0.611388D-06  0.168853D-06 -0.828026D-07  0.886888D-09
     12  -0.100000D+01  0.449664D-07 -0.144090D-07  0.132737D-07 -0.181497D-08
     13  -0.100000D+01  0.172548D-07 -0.387408D-08  0.378585D-08 -0.703998D-09
                 6             7             8             9            10 
      1  -0.100000D+01 -0.100000D+01 -0.100000D+01 -0.100000D+01 -0.100000D+01
      2  -0.451203D-03 -0.151890D-03 -0.478451D-04 -0.101009D-04 -0.136162D-05
      3   0.449594D-04  0.601649D-04  0.190971D-04  0.397829D-05  0.704903D-06
      4  -0.145453D-03 -0.329489D-04 -0.904366D-05 -0.154476D-05 -0.201227D-06
      5  -0.182473D-04 -0.319571D-05 -0.269816D-06 -0.125959D-06  0.786891D-08
      6  -0.201459D-04 -0.357038D-05 -0.137432D-05 -0.184751D-06 -0.103474D-07
      7  -0.357038D-05 -0.160172D-05 -0.314759D-06 -0.115637D-06 -0.879092D-08
      8  -0.137432D-05 -0.314759D-06 -0.266790D-06 -0.340294D-07 -0.796104D-08
      9  -0.184751D-06 -0.115637D-06 -0.340294D-07 -0.141315D-07 -0.146493D-08
     10  -0.103474D-07 -0.879092D-08 -0.796104D-08 -0.146493D-08 -0.826724D-09
     11  -0.427490D-08 -0.227924D-08 -0.102374D-08 -0.397964D-09 -0.102219D-09
     12   0.201727D-08  0.329283D-09  0.294130D-10  0.135592D-10 -0.309831D-10
     13   0.499665D-09  0.398241D-10  0.146914D-10  0.242268D-11 -0.481392D-11
                11            12            13 
      1  -0.100000D+01 -0.100000D+01 -0.100000D+01
      2  -0.611388D-06  0.449664D-07  0.172548D-07
      3   0.168853D-06 -0.144090D-07 -0.387408D-08
      4  -0.828026D-07  0.132737D-07  0.378585D-08
      5   0.886888D-09 -0.181497D-08 -0.703998D-09
      6  -0.427490D-08  0.201727D-08  0.499665D-09
      7  -0.227924D-08  0.329283D-09  0.398241D-10
      8  -0.102374D-08  0.294130D-10  0.146914D-10
      9  -0.397964D-09  0.135592D-10  0.242268D-11
     10  -0.102219D-09 -0.309831D-10 -0.481392D-11
     11  -0.393856D-10 -0.518062D-11 -0.154197D-11
     12  -0.518062D-11 -0.393520D-11 -0.579894D-12
     13  -0.154197D-11 -0.579894D-12 -0.295989D-12
 Tr matrix at iteration         12
                 1             2             3             4             5 
      1  -0.103627D+03  0.000000D+00  0.000000D+00  0.000000D+00  0.000000D+00
      2   0.000000D+00 -0.290113D+02 -0.291939D+02 -0.291791D+02 -0.291727D+02
      3   0.000000D+00 -0.287785D+02 -0.289993D+02 -0.290151D+02 -0.290128D+02
      4   0.000000D+00 -0.288082D+02 -0.290597D+02 -0.290768D+02 -0.290790D+02
      5   0.000000D+00 -0.288041D+02 -0.290596D+02 -0.290813D+02 -0.290843D+02
      6   0.000000D+00 -0.287942D+02 -0.290521D+02 -0.290745D+02 -0.290781D+02
      7   0.100000D+01 -0.287917D+02 -0.290502D+02 -0.290731D+02 -0.290769D+02
      8   0.000000D+00 -0.287899D+02 -0.290485D+02 -0.290714D+02 -0.290752D+02
      9   0.000000D+00 -0.287894D+02 -0.290480D+02 -0.290709D+02 -0.290748D+02
     10   0.000000D+00 -0.287892D+02 -0.290478D+02 -0.290707D+02 -0.290745D+02
     11   0.000000D+00 -0.287892D+02 -0.290477D+02 -0.290707D+02 -0.290745D+02
     12   0.000000D+00 -0.287892D+02 -0.290477D+02 -0.290707D+02 -0.290745D+02
     13   0.000000D+00 -0.287891D+02 -0.290477D+02 -0.290707D+02 -0.290745D+02
                 6             7             8             9            10 
      1   0.000000D+00  0.000000D+00  0.000000D+00  0.000000D+00  0.000000D+00
      2  -0.291692D+02 -0.291679D+02 -0.291677D+02 -0.291677D+02 -0.291677D+02
      3  -0.290116D+02 -0.290109D+02 -0.290108D+02 -0.290108D+02 -0.290108D+02
      4  -0.290786D+02 -0.290783D+02 -0.290783D+02 -0.290783D+02 -0.290783D+02
      5  -0.290845D+02 -0.290844D+02 -0.290844D+02 -0.290844D+02 -0.290844D+02
      6  -0.290784D+02 -0.290785D+02 -0.290785D+02 -0.290784D+02 -0.290784D+02
      7  -0.290773D+02 -0.290774D+02 -0.290774D+02 -0.290774D+02 -0.290774D+02
[...]
  62 20  H  1S          0.00000   0.97017
  63 21  H  1S          0.00000   0.00000   0.96340
  64 22  H  1S          0.00000   0.00000   0.00000   0.98423
  65 23  H  1S          0.00000   0.00000   0.00000   0.00000   0.97858
  66 24  H  1S          0.00000   0.00000   0.00000   0.00000   0.00000
  67 25  H  1S          0.00000   0.00000   0.00000   0.00000   0.00000
  68 26  H  1S          0.00000   0.00000   0.00000   0.00000   0.00000
  69 27  H  1S          0.00000   0.00000   0.00000   0.00000   0.00000
                          66        67        68        69
  66 24  H  1S          0.97965
  67 25  H  1S          0.00000   0.98364
  68 26  H  1S          0.00000   0.00000   0.97003
  69 27  H  1S          0.00000   0.00000   0.00000   0.96379
     Gross orbital populations:
                           1
   1 1   C  1S          1.12208
   2        2PX         0.96207
   3        2PY         0.97047
   4        2PZ         0.98174
   5 2   C  1S          1.08765
   6        2PX         0.98614
   7        2PY         0.97041
   8        2PZ         0.97467
   9 3   C  1S          1.06201
  10        2PX         0.85011
  11        2PY         0.88990
  12        2PZ         0.86788
  13 4   N  1S          1.58511
  14        2PX         1.40612
  15        2PY         1.15798
  16        2PZ         1.30358
  17 5   C  1S          1.04571
  18        2PX         0.84439
  19        2PY         0.86219
  20        2PZ         0.83171
  21 6   N  1S          1.59207
  22        2PX         1.29985
  23        2PY         1.39935
  24        2PZ         1.17115
  25 7   C  1S          1.04278
  26        2PX         0.81402
  27        2PY         0.87836
  28        2PZ         0.84922
  29 8   N  1S          1.58870
  30        2PX         1.21615
  31        2PY         1.24783
  32        2PZ         1.40091
  33 9   N  1S          1.23303
  34        2PX         1.40511
  35        2PY         1.30839
  36        2PZ         1.33238
  37 10  N  1S          1.26006
  38        2PX         1.35914
  39        2PY         1.25605
  40        2PZ         1.32206
  41 11  C  1S          1.06030
  42        2PX         0.92360
  43        2PY         0.98116
  44        2PZ         0.97240
  45 12  C  1S          1.05990
  46        2PX         0.97423
  47        2PY         1.00483
  48        2PZ         0.98820
  49 13  C  1S          1.06010
  50        2PX         1.00722
  51        2PY         0.97007
  52        2PZ         0.99073
  53 14  C  1S          1.06031
  54        2PX         0.96848
  55        2PY         0.91034
  56        2PZ         0.99798
  57 15  H  1S          0.96503
  58 16  H  1S          0.95084
  59 17  H  1S          0.95308
  60 18  H  1S          0.83493
  61 19  H  1S          0.83429
  62 20  H  1S          0.97017
  63 21  H  1S          0.96340
  64 22  H  1S          0.98423
  65 23  H  1S          0.97858
  66 24  H  1S          0.97965
  67 25  H  1S          0.98364
  68 26  H  1S          0.97003
  69 27  H  1S          0.96379
          Condensed to atoms (all electrons):
               1          2          3          4          5          6
     1  C    4.036360   0.000000   0.000000   0.000000   0.000000   0.000000
     2  C    0.000000   4.018865   0.000000   0.000000   0.000000   0.000000
     3  C    0.000000   0.000000   3.669897   0.000000   0.000000   0.000000
     4  N    0.000000   0.000000   0.000000   5.452785   0.000000   0.000000
     5  C    0.000000   0.000000   0.000000   0.000000   3.583989   0.000000
     6  N    0.000000   0.000000   0.000000   0.000000   0.000000   5.462414
     7  C    0.000000   0.000000   0.000000   0.000000   0.000000   0.000000
     8  N    0.000000   0.000000   0.000000   0.000000   0.000000   0.000000
     9  N    0.000000   0.000000   0.000000   0.000000   0.000000   0.000000
    10  N    0.000000   0.000000   0.000000   0.000000   0.000000   0.000000
    11  C    0.000000   0.000000   0.000000   0.000000   0.000000   0.000000
    12  C    0.000000   0.000000   0.000000   0.000000   0.000000   0.000000
    13  C    0.000000   0.000000   0.000000   0.000000   0.000000   0.000000
    14  C    0.000000   0.000000   0.000000   0.000000   0.000000   0.000000
    15  H    0.000000   0.000000   0.000000   0.000000   0.000000   0.000000
    16  H    0.000000   0.000000   0.000000   0.000000   0.000000   0.000000
    17  H    0.000000   0.000000   0.000000   0.000000   0.000000   0.000000
    18  H    0.000000   0.000000   0.000000   0.000000   0.000000   0.000000
    19  H    0.000000   0.000000   0.000000   0.000000   0.000000   0.000000
    20  H    0.000000   0.000000   0.000000   0.000000   0.000000   0.000000
    21  H    0.000000   0.000000   0.000000   0.000000   0.000000   0.000000
    22  H    0.000000   0.000000   0.000000   0.000000   0.000000   0.000000
    23  H    0.000000   0.000000   0.000000   0.000000   0.000000   0.000000
    24  H    0.000000   0.000000   0.000000   0.000000   0.000000   0.000000
    25  H    0.000000   0.000000   0.000000   0.000000   0.000000   0.000000
    26  H    0.000000   0.000000   0.000000   0.000000   0.000000   0.000000
    27  H    0.000000   0.000000   0.000000   0.000000   0.000000   0.000000
               7          8          9         10         11         12
     1  C    0.000000   0.000000   0.000000   0.000000   0.000000   0.000000
     2  C    0.000000   0.000000   0.000000   0.000000   0.000000   0.000000
     3  C    0.000000   0.000000   0.000000   0.000000   0.000000   0.000000
     4  N    0.000000   0.000000   0.000000   0.000000   0.000000   0.000000
     5  C    0.000000   0.000000   0.000000   0.000000   0.000000   0.000000
     6  N    0.000000   0.000000   0.000000   0.000000   0.000000   0.000000
     7  C    3.584382   0.000000   0.000000   0.000000   0.000000   0.000000
     8  N    0.000000   5.453581   0.000000   0.000000   0.000000   0.000000
     9  N    0.000000   0.000000   5.278916   0.000000   0.000000   0.000000
    10  N    0.000000   0.000000   0.000000   5.197304   0.000000   0.000000
    11  C    0.000000   0.000000   0.000000   0.000000   3.937468   0.000000
    12  C    0.000000   0.000000   0.000000   0.000000   0.000000   4.027152
    13  C    0.000000   0.000000   0.000000   0.000000   0.000000   0.000000
    14  C    0.000000   0.000000   0.000000   0.000000   0.000000   0.000000
    15  H    0.000000   0.000000   0.000000   0.000000   0.000000   0.000000
    16  H    0.000000   0.000000   0.000000   0.000000   0.000000   0.000000
    17  H    0.000000   0.000000   0.000000   0.000000   0.000000   0.000000
    18  H    0.000000   0.000000   0.000000   0.000000   0.000000   0.000000
    19  H    0.000000   0.000000   0.000000   0.000000   0.000000   0.000000
    20  H    0.000000   0.000000   0.000000   0.000000   0.000000   0.000000
    21  H    0.000000   0.000000   0.000000   0.000000   0.000000   0.000000
    22  H    0.000000   0.000000   0.000000   0.000000   0.000000   0.000000
    23  H    0.000000   0.000000   0.000000   0.000000   0.000000   0.000000
    24  H    0.000000   0.000000   0.000000   0.000000   0.000000   0.000000
    25  H    0.000000   0.000000   0.000000   0.000000   0.000000   0.000000
    26  H    0.000000   0.000000   0.000000   0.000000   0.000000   0.000000
    27  H    0.000000   0.000000   0.000000   0.000000   0.000000   0.000000
              13         14         15         16         17         18
     1  C    0.000000   0.000000   0.000000   0.000000   0.000000   0.000000
     2  C    0.000000   0.000000   0.000000   0.000000   0.000000   0.000000
     3  C    0.000000   0.000000   0.000000   0.000000   0.000000   0.000000
     4  N    0.000000   0.000000   0.000000   0.000000   0.000000   0.000000
     5  C    0.000000   0.000000   0.000000   0.000000   0.000000   0.000000
     6  N    0.000000   0.000000   0.000000   0.000000   0.000000   0.000000
     7  C    0.000000   0.000000   0.000000   0.000000   0.000000   0.000000
     8  N    0.000000   0.000000   0.000000   0.000000   0.000000   0.000000
     9  N    0.000000   0.000000   0.000000   0.000000   0.000000   0.000000
    10  N    0.000000   0.000000   0.000000   0.000000   0.000000   0.000000
    11  C    0.000000   0.000000   0.000000   0.000000   0.000000   0.000000
    12  C    0.000000   0.000000   0.000000   0.000000   0.000000   0.000000
    13  C    4.028122   0.000000   0.000000   0.000000   0.000000   0.000000
    14  C    0.000000   3.937118   0.000000   0.000000   0.000000   0.000000
    15  H    0.000000   0.000000   0.965028   0.000000   0.000000   0.000000
    16  H    0.000000   0.000000   0.000000   0.950838   0.000000   0.000000
    17  H    0.000000   0.000000   0.000000   0.000000   0.953079   0.000000
    18  H    0.000000   0.000000   0.000000   0.000000   0.000000   0.834933
    19  H    0.000000   0.000000   0.000000   0.000000   0.000000   0.000000
    20  H    0.000000   0.000000   0.000000   0.000000   0.000000   0.000000
    21  H    0.000000   0.000000   0.000000   0.000000   0.000000   0.000000
    22  H    0.000000   0.000000   0.000000   0.000000   0.000000   0.000000
    23  H    0.000000   0.000000   0.000000   0.000000   0.000000   0.000000
    24  H    0.000000   0.000000   0.000000   0.000000   0.000000   0.000000
    25  H    0.000000   0.000000   0.000000   0.000000   0.000000   0.000000
    26  H    0.000000   0.000000   0.000000   0.000000   0.000000   0.000000
    27  H    0.000000   0.000000   0.000000   0.000000   0.000000   0.000000
              19         20         21         22         23         24
     1  C    0.000000   0.000000   0.000000   0.000000   0.000000   0.000000
     2  C    0.000000   0.000000   0.000000   0.000000   0.000000   0.000000
     3  C    0.000000   0.000000   0.000000   0.000000   0.000000   0.000000
     4  N    0.000000   0.000000   0.000000   0.000000   0.000000   0.000000
     5  C    0.000000   0.000000   0.000000   0.000000   0.000000   0.000000
     6  N    0.000000   0.000000   0.000000   0.000000   0.000000   0.000000
     7  C    0.000000   0.000000   0.000000   0.000000   0.000000   0.000000
     8  N    0.000000   0.000000   0.000000   0.000000   0.000000   0.000000
     9  N    0.000000   0.000000   0.000000   0.000000   0.000000   0.000000
    10  N    0.000000   0.000000   0.000000   0.000000   0.000000   0.000000
    11  C    0.000000   0.000000   0.000000   0.000000   0.000000   0.000000
    12  C    0.000000   0.000000   0.000000   0.000000   0.000000   0.000000
    13  C    0.000000   0.000000   0.000000   0.000000   0.000000   0.000000
    14  C    0.000000   0.000000   0.000000   0.000000   0.000000   0.000000
    15  H    0.000000   0.000000   0.000000   0.000000   0.000000   0.000000
    16  H    0.000000   0.000000   0.000000   0.000000   0.000000   0.000000
    17  H    0.000000   0.000000   0.000000   0.000000   0.000000   0.000000
    18  H    0.000000   0.000000   0.000000   0.000000   0.000000   0.000000
    19  H    0.834285   0.000000   0.000000   0.000000   0.000000   0.000000
    20  H    0.000000   0.970169   0.000000   0.000000   0.000000   0.000000
    21  H    0.000000   0.000000   0.963404   0.000000   0.000000   0.000000
    22  H    0.000000   0.000000   0.000000   0.984228   0.000000   0.000000
    23  H    0.000000   0.000000   0.000000   0.000000   0.978583   0.000000
    24  H    0.000000   0.000000   0.000000   0.000000   0.000000   0.979645
    25  H    0.000000   0.000000   0.000000   0.000000   0.000000   0.000000
    26  H    0.000000   0.000000   0.000000   0.000000   0.000000   0.000000
    27  H    0.000000   0.000000   0.000000   0.000000   0.000000   0.000000
              25         26         27
     1  C    0.000000   0.000000   0.000000
     2  C    0.000000   0.000000   0.000000
     3  C    0.000000   0.000000   0.000000
     4  N    0.000000   0.000000   0.000000
     5  C    0.000000   0.000000   0.000000
     6  N    0.000000   0.000000   0.000000
     7  C    0.000000   0.000000   0.000000
     8  N    0.000000   0.000000   0.000000
     9  N    0.000000   0.000000   0.000000
    10  N    0.000000   0.000000   0.000000
    11  C    0.000000   0.000000   0.000000
    12  C    0.000000   0.000000   0.000000
    13  C    0.000000   0.000000   0.000000
    14  C    0.000000   0.000000   0.000000
    15  H    0.000000   0.000000   0.000000
    16  H    0.000000   0.000000   0.000000
    17  H    0.000000   0.000000   0.000000
    18  H    0.000000   0.000000   0.000000
    19  H    0.000000   0.000000   0.000000
    20  H    0.000000   0.000000   0.000000
    21  H    0.000000   0.000000   0.000000
    22  H    0.000000   0.000000   0.000000
    23  H    0.000000   0.000000   0.000000
    24  H    0.000000   0.000000   0.000000
    25  H    0.983641   0.000000   0.000000
    26  H    0.000000   0.970028   0.000000
    27  H    0.000000   0.000000   0.963787
 Mulliken charges:
               1
     1  C   -0.036360
     2  C   -0.018865
     3  C    0.330103
     4  N   -0.452785
     5  C    0.416011
     6  N   -0.462414
     7  C    0.415618
     8  N   -0.453581
     9  N   -0.278916
    10  N   -0.197304
    11  C    0.062532
    12  C   -0.027152
    13  C   -0.028122
    14  C    0.062882
    15  H    0.034972
    16  H    0.049162
    17  H    0.046921
    18  H    0.165067
    19  H    0.165715
    20  H    0.029831
    21  H    0.036596
    22  H    0.015772
    23  H    0.021417
    24  H    0.020355
    25  H    0.016359
    26  H    0.029972
    27  H    0.036213
 Sum of Mulliken charges =  -0.00000
 Mulliken charges with hydrogens summed into heavy atoms:
               1
     1  C    0.047773
     2  C    0.028056
     3  C    0.330103
     4  N   -0.452785
     5  C    0.416011
     6  N   -0.462414
     7  C    0.415618
     8  N   -0.453581
     9  N    0.051866
    10  N   -0.197304
    11  C    0.128959
    12  C    0.010037
    13  C    0.008592
    14  C    0.129068
 Charge=              0.0000 electrons
 Dipole moment (field-independent basis, Debye):
    X=             -0.2310    Y=             -1.4422    Z=             -0.3249  Tot=              1.4963
 N-N= 3.437162476048D+02 E-N= 0.000000000000D+00  KE=-8.365369084895D+02
 Orbital energies and kinetic energies (alpha):
                                 1                 2
   1         O                -1.773344        -13.019277
   2         O                -1.693322        -12.573772
   3         O                -1.503792        -11.880909
   4         O                -1.416183        -12.067548
   5         O                -1.333399        -11.541021
   6         O                -1.272935        -11.977621
   7         O                -1.240496        -12.179158
   8         O                -1.175295        -11.661893
   9         O                -1.023724        -11.257011
  10         O                -1.005864        -11.665956
  11         O                -0.940603        -11.342426
  12         O                -0.879514        -11.258718
  13         O                -0.861393        -11.149957
  14         O                -0.819163        -11.144726
  15         O                -0.805692        -10.744298
  16         O                -0.767935        -10.766829
  17         O                -0.683440        -10.846806
  18         O                -0.659048        -10.814262
  19         O                -0.645865        -10.546276
  20         O                -0.627116        -10.662116
  21         O                -0.598996        -11.211145
  22         O                -0.578790        -11.354844
  23         O                -0.569657        -11.363278
  24         O                -0.556315        -10.694305
  25         O                -0.540621        -11.208464
  26         O                -0.525169        -10.594100
  27         O                -0.497324        -10.542615
  28         O                -0.491542        -11.072180
  29         O                -0.478882        -10.857015
  30         O                -0.463295        -10.785208
  31         O                -0.458950        -10.259064
  32         O                -0.424637        -11.450168
  33         O                -0.367538        -11.852398
  34         O                -0.361539        -11.023106
  35         O                -0.361007        -11.836423
  36         O                -0.342352        -11.185070
  37         O                -0.330337        -11.878491
  38         V                -0.004629        -10.854029
  39         V                 0.023276        -11.690013
  40         V                 0.062376        -10.707877
  41         V                 0.105720        -11.300547
  42         V                 0.110685        -10.626157
  43         V                 0.115494         -9.873407
  44         V                 0.120428        -10.104497
  45         V                 0.148284        -10.494284
  46         V                 0.162521        -10.433114
  47         V                 0.166312        -10.278759
  48         V                 0.169572         -9.513189
  49         V                 0.174604        -10.328874
  50         V                 0.216211         -9.911127
  51         V                 0.219592         -9.940587
  52         V                 0.237709         -9.864818
  53         V                 0.242617        -10.294757
  54         V                 0.244430        -10.542401
  55         V                 0.251441         -9.918528
  56         V                 0.253968         -9.474334
  57         V                 0.273381         -8.816847
  58         V                 0.296083         -9.723933
  59         V                 0.303005         -9.229883
  60         V                 0.326830        -10.152139
  61         V                 0.333269        -10.210666
  62         V                 0.349283         -9.921960
  63         V                 0.374568        -11.029048
  64         V                 0.391959        -10.751024
  65         V                 0.395197        -10.788948
  66         V                 0.412296        -10.388587
  67         V                 0.507448        -10.787749
  68         V                 0.522464        -11.064971
  69         V                 0.530121        -11.240837
 Total kinetic energy from orbitals=-8.365369084895D+02

 Test job not archived.
 1\1\GINC-NODE032\SP\RZINDO CIS\STO-3G\C9H13N5\SGOOMAR1\12-Aug-2025\0\\
 #n ZINDO sp IOP(5/33=2) PUNCH=(MO,Coord) pop=full nosymm\\title\\0,1\C
 ,0,1.45427,0.41086,-0.92733\C,0,2.39996,-0.08376,-0.12599\C,0,3.1417,-
 1.31694,-0.43785\N,0,2.79107,-2.04924,-1.52079\C,0,3.52996,-3.19034,-1
 .76491\N,0,4.55259,-3.62396,-0.9547\C,0,4.82783,-2.80953,0.10963\N,0,4
 .15144,-1.64977,0.40684\N,0,5.84156,-3.18026,0.94278\N,0,3.28879,-3.87
 888,-2.9119\C,0,2.05974,-3.66142,-3.6999\C,0,1.70661,-5.03481,-4.30116
 \C,0,3.00167,-5.86516,-4.23279\C,0,3.8548,-5.22723,-3.11995\H,0,0.9058
 9,1.31537,-0.70905\H,0,1.16372,-0.05944,-1.86131\H,0,2.69586,0.3922,0.
 81384\H,0,6.36143,-4.01274,0.75716\H,0,6.06965,-2.60964,1.73132\H,0,2.
 2824,-2.90513,-4.48498\H,0,1.23966,-3.2474,-3.07388\H,0,1.33866,-4.939
 83,-5.3342\H,0,0.90011,-5.51875,-3.72353\H,0,3.5356,-5.83599,-5.19813\
 H,0,2.79323,-6.92528,-4.02102\H,0,4.92407,-5.12392,-3.40675\H,0,3.8297
 6,-5.82078,-2.17978\\Version=ES64L-G16RevA.03\HF=-103.6272816\RMSD=6.8
 14e-09\PG=C01 [X(C9H13N5)]\\@


 Human beings, who are almost unique in having the
 ability to learn from the experience of others, are
 also remarkable for their apparent disinclination to do so.
                               -- Douglas Adams,
                                Last Chance to See
 Job cpu time:       0 days  0 hours  0 minutes  2.2 seconds.
 Elapsed time:       0 days  0 hours  0 minutes  0.8 seconds.
 File lengths (MBytes):  RWF=     79 Int=      0 D2E=      0 Chk=      2 Scr=      1
 Normal termination of Gaussian 16 at Tue Aug 12 15:59:18 2025.
