title                                                                   
SP        RZINDO CIS                                                  STO-3G              
Number of atoms                            I               27
Info1-9                                    I   N=           9
          35          35           0           0           0         111
           1         108         590
Full Title                                 C   N=           1
title       
Route                                      C   N=           5
#n ZINDO sp IOP(5/33=2) PUNCH=(MO,Coord) pop=full nosymm    
Charge                                     I                0
Multiplicity                               I                1
Number of electrons                        I               74
Number of alpha electrons                  I               37
Number of beta electrons                   I               37
Number of basis functions                  I               69
Number of independent functions            I               69
Number of point charges in /Mol/           I                0
Number of translation vectors              I                0
Atomic numbers                             I   N=          27
           6           6           6           7           6           7
           6           7           7           7           6           6
           6           6           1           1           1           1
           1           1           1           1           1           1
           1           1           1
Nuclear charges                            R   N=          27
  4.00000000E+00  4.00000000E+00  4.00000000E+00  5.00000000E+00  4.00000000E+00
  5.00000000E+00  4.00000000E+00  5.00000000E+00  5.00000000E+00  5.00000000E+00
  4.00000000E+00  4.00000000E+00  4.00000000E+00  4.00000000E+00  1.00000000E+00
  1.00000000E+00  1.00000000E+00  1.00000000E+00  1.00000000E+00  1.00000000E+00
  1.00000000E+00  1.00000000E+00  1.00000000E+00  1.00000000E+00  1.00000000E+00
  1.00000000E+00  1.00000000E+00
Current cartesian coordinates              R   N=          81
  2.74817201E+00  7.76412876E-01 -1.75239973E+00  4.53526711E+00 -1.58283460E-01
 -2.38086594E-01  5.93695257E+00 -2.48865592E+00 -8.27416584E-01  5.27435789E+00
 -3.87250236E+00 -2.87387659E+00  6.67065763E+00 -6.02886884E+00 -3.33519653E+00
  8.60314826E+00 -6.84829189E+00 -1.80412153E+00  9.12327648E+00 -5.30924224E+00
  2.07170675E-01  7.84508462E+00 -3.11761347E+00  7.68816177E-01  1.10389485E+01
 -6.00982040E+00  1.78159600E+00  6.21491238E+00 -7.33002087E+00 -5.50269350E+00
  3.89234449E+00 -6.91908103E+00 -6.99179769E+00  3.22502550E+00 -9.51441199E+00
 -8.12801442E+00  5.67233422E+00 -1.10835461E+01 -7.99881384E+00  7.28451626E+00
 -9.87803309E+00 -5.89585102E+00  1.71188400E+00  2.48568905E+00 -1.33991031E+00
  2.19911209E+00 -1.12325321E-01 -3.51736613E+00  5.09443707E+00  7.41150586E-01
  1.53793471E+00  1.20213605E+01 -7.58297961E+00  1.43082503E+00  1.14699762E+01
 -4.93150488E+00  3.27172063E+00  4.31311091E+00 -5.48990006E+00 -8.47538387E+00
  2.34261789E+00 -6.13669662E+00 -5.80879134E+00  2.52970077E+00 -9.33492580E+00
 -1.00801771E+01  1.70096138E+00 -1.04289260E+01 -7.03645192E+00  6.68131569E+00
 -1.10284228E+01 -9.82304206E+00  5.27843970E+00 -1.30868825E+01 -7.59862654E+00
  9.30514372E+00 -9.68280548E+00 -6.43782447E+00  7.23719752E+00 -1.09996800E+01
 -4.11918721E+00
Number of symbols in /Mol/                 I                0
Force Field                                I                0
Atom Types                                 C   N=          27
                                                            
                                                            
                                                            
                                                            
                                                            
                        
Int Atom Types                             I   N=          27
           0           0           0           0           0           0
           0           0           0           0           0           0
           0           0           0           0           0           0
           0           0           0           0           0           0
           0           0           0
MM charges                                 R   N=          27
  0.00000000E+00  0.00000000E+00  0.00000000E+00  0.00000000E+00  0.00000000E+00
  0.00000000E+00  0.00000000E+00  0.00000000E+00  0.00000000E+00  0.00000000E+00
  0.00000000E+00  0.00000000E+00  0.00000000E+00  0.00000000E+00  0.00000000E+00
  0.00000000E+00  0.00000000E+00  0.00000000E+00  0.00000000E+00  0.00000000E+00
  0.00000000E+00  0.00000000E+00  0.00000000E+00  0.00000000E+00  0.00000000E+00
  0.00000000E+00  0.00000000E+00
Integer atomic weights                     I   N=          27
          12          12          12          14          12          14
          12          14          14          14          12          12
          12          12           1           1           1           1
           1           1           1           1           1           1
           1           1           1
Real atomic weights                        R   N=          27
  1.20000000E+01  1.20000000E+01  1.20000000E+01  1.40030740E+01  1.20000000E+01
  1.40030740E+01  1.20000000E+01  1.40030740E+01  1.40030740E+01  1.40030740E+01
  1.20000000E+01  1.20000000E+01  1.20000000E+01  1.20000000E+01  1.00782504E+00
  1.00782504E+00  1.00782504E+00  1.00782504E+00  1.00782504E+00  1.00782504E+00
  1.00782504E+00  1.00782504E+00  1.00782504E+00  1.00782504E+00  1.00782504E+00
  1.00782504E+00  1.00782504E+00
Atom fragment info                         I   N=          27
           0           0           0           0           0           0
           0           0           0           0           0           0
           0           0           0           0           0           0
           0           0           0           0           0           0
           0           0           0
Atom residue num                           I   N=          27
           0           0           0           0           0           0
           0           0           0           0           0           0
           0           0           0           0           0           0
           0           0           0           0           0           0
           0           0           0
Nuclear spins                              I   N=          27
           0           0           0           2           0           2
           0           2           2           2           0           0
           0           0           1           1           1           1
           1           1           1           1           1           1
           1           1           1
Nuclear ZEff                               R   N=          27
 -3.90000000E+00 -3.90000000E+00 -3.90000000E+00 -4.90000000E+00 -3.90000000E+00
 -4.90000000E+00 -3.90000000E+00 -4.90000000E+00 -4.90000000E+00 -4.90000000E+00
 -3.90000000E+00 -3.90000000E+00 -3.90000000E+00 -3.90000000E+00 -1.00000000E+00
 -1.00000000E+00 -1.00000000E+00 -1.00000000E+00 -1.00000000E+00 -1.00000000E+00
 -1.00000000E+00 -1.00000000E+00 -1.00000000E+00 -1.00000000E+00 -1.00000000E+00
 -1.00000000E+00 -1.00000000E+00
Nuclear ZNuc                               R   N=          27
  6.00000000E+00  6.00000000E+00  6.00000000E+00  7.00000000E+00  6.00000000E+00
  7.00000000E+00  6.00000000E+00  7.00000000E+00  7.00000000E+00  7.00000000E+00
  6.00000000E+00  6.00000000E+00  6.00000000E+00  6.00000000E+00  1.00000000E+00
  1.00000000E+00  1.00000000E+00  1.00000000E+00  1.00000000E+00  1.00000000E+00
  1.00000000E+00  1.00000000E+00  1.00000000E+00  1.00000000E+00  1.00000000E+00
  1.00000000E+00  1.00000000E+00
Nuclear QMom                               R   N=          27
  0.00000000E+00  0.00000000E+00  0.00000000E+00  2.04400000E+00  0.00000000E+00
  2.04400000E+00  0.00000000E+00  2.04400000E+00  2.04400000E+00  2.04400000E+00
  0.00000000E+00  0.00000000E+00  0.00000000E+00  0.00000000E+00  0.00000000E+00
  0.00000000E+00  0.00000000E+00  0.00000000E+00  0.00000000E+00  0.00000000E+00
  0.00000000E+00  0.00000000E+00  0.00000000E+00  0.00000000E+00  0.00000000E+00
  0.00000000E+00  0.00000000E+00
Nuclear GFac                               R   N=          27
  0.00000000E+00  0.00000000E+00  0.00000000E+00  4.03761000E-01  0.00000000E+00
  4.03761000E-01  0.00000000E+00  4.03761000E-01  4.03761000E-01  4.03761000E-01
  0.00000000E+00  0.00000000E+00  0.00000000E+00  0.00000000E+00  2.79284600E+00
  2.79284600E+00  2.79284600E+00  2.79284600E+00  2.79284600E+00  2.79284600E+00
  2.79284600E+00  2.79284600E+00  2.79284600E+00  2.79284600E+00  2.79284600E+00
  2.79284600E+00  2.79284600E+00
MicOpt                                     I   N=          27
          -1          -1          -1          -1          -1          -1
          -1          -1          -1          -1          -1          -1
          -1          -1          -1          -1          -1          -1
          -1          -1          -1          -1          -1          -1
          -1          -1          -1
Number of residues                         I                0
Number of secondary structures             I                0
Number of contracted shells                I               41
Number of primitive shells                 I              246
Pure/Cartesian d shells                    I                0
Pure/Cartesian f shells                    I                0
Highest angular momentum                   I                1
Largest degree of contraction              I                6
Shell types                                I   N=          41
           0           1           0           1           0           1
           0           1           0           1           0           1
           0           1           0           1           0           1
           0           1           0           1           0           1
           0           1           0           1           0           0
           0           0           0           0           0           0
           0           0           0           0           0
Number of primitives per shell             I   N=          41
           6           6           6           6           6           6
           6           6           6           6           6           6
           6           6           6           6           6           6
           6           6           6           6           6           6
           6           6           6           6           6           6
           6           6           6           6           6           6
           6           6           6           6           6
Shell to atom map                          I   N=          41
           1           1           2           2           3           3
           4           4           5           5           6           6
           7           7           8           8           9           9
          10          10          11          11          12          12
          13          13          14          14          15          16
          17          18          19          20          21          22
          23          24          25          26          27
Primitive exponents                        R   N=         246
  7.31056039E+01  1.34068245E+01  3.76760691E+00  5.38776153E-01  2.44529755E-01
  1.16614858E-01  1.54959425E+01  4.04102668E+00  1.44591785E+00  6.04421300E-01
  2.76382592E-01  1.30663938E-01  7.31056039E+01  1.34068245E+01  3.76760691E+00
  5.38776153E-01  2.44529755E-01  1.16614858E-01  1.54959425E+01  4.04102668E+00
  1.44591785E+00  6.04421300E-01  2.76382592E-01  1.30663938E-01  7.31056039E+01
  1.34068245E+01  3.76760691E+00  5.38776153E-01  2.44529755E-01  1.16614858E-01
  1.54959425E+01  4.04102668E+00  1.44591785E+00  6.04421300E-01  2.76382592E-01
  1.30663938E-01  1.05272070E+02  1.93058272E+01  5.42535396E+00  7.75837661E-01
  3.52122847E-01  1.67925396E-01  2.23141572E+01  5.81907842E+00  2.08212170E+00
  8.70366672E-01  3.97990932E-01  1.88156070E-01  7.31056039E+01  1.34068245E+01
  3.76760691E+00  5.38776153E-01  2.44529755E-01  1.16614858E-01  1.54959425E+01
  4.04102668E+00  1.44591785E+00  6.04421300E-01  2.76382592E-01  1.30663938E-01
  1.05272070E+02  1.93058272E+01  5.42535396E+00  7.75837661E-01  3.52122847E-01
  1.67925396E-01  2.23141572E+01  5.81907842E+00  2.08212170E+00  8.70366672E-01
  3.97990932E-01  1.88156070E-01  7.31056039E+01  1.34068245E+01  3.76760691E+00
  5.38776153E-01  2.44529755E-01  1.16614858E-01  1.54959425E+01  4.04102668E+00
  1.44591785E+00  6.04421300E-01  2.76382592E-01  1.30663938E-01  1.05272070E+02
  1.93058272E+01  5.42535396E+00  7.75837661E-01  3.52122847E-01  1.67925396E-01
  2.23141572E+01  5.81907842E+00  2.08212170E+00  8.70366672E-01  3.97990932E-01
  1.88156070E-01  1.05272070E+02  1.93058272E+01  5.42535396E+00  7.75837661E-01
  3.52122847E-01  1.67925396E-01  2.23141572E+01  5.81907842E+00  2.08212170E+00
  8.70366672E-01  3.97990932E-01  1.88156070E-01  1.05272070E+02  1.93058272E+01
  5.42535396E+00  7.75837661E-01  3.52122847E-01  1.67925396E-01  2.23141572E+01
  5.81907842E+00  2.08212170E+00  8.70366672E-01  3.97990932E-01  1.88156070E-01
  7.31056039E+01  1.34068245E+01  3.76760691E+00  5.38776153E-01  2.44529755E-01
  1.16614858E-01  1.54959425E+01  4.04102668E+00  1.44591785E+00  6.04421300E-01
  2.76382592E-01  1.30663938E-01  7.31056039E+01  1.34068245E+01  3.76760691E+00
  5.38776153E-01  2.44529755E-01  1.16614858E-01  1.54959425E+01  4.04102668E+00
  1.44591785E+00  6.04421300E-01  2.76382592E-01  1.30663938E-01  7.31056039E+01
  1.34068245E+01  3.76760691E+00  5.38776153E-01  2.44529755E-01  1.16614858E-01
  1.54959425E+01  4.04102668E+00  1.44591785E+00  6.04421300E-01  2.76382592E-01
  1.30663938E-01  7.31056039E+01  1.34068245E+01  3.76760691E+00  5.38776153E-01
  2.44529755E-01  1.16614858E-01  1.54959425E+01  4.04102668E+00  1.44591785E+00
  6.04421300E-01  2.76382592E-01  1.30663938E-01  3.32683653E+01  6.09971837E+00
  1.70648139E+00  5.86222413E-01  2.27647318E-01  9.37577369E-02  3.32683653E+01
  6.09971837E+00  1.70648139E+00  5.86222413E-01  2.27647318E-01  9.37577369E-02
  3.32683653E+01  6.09971837E+00  1.70648139E+00  5.86222413E-01  2.27647318E-01
  9.37577369E-02  3.32683653E+01  6.09971837E+00  1.70648139E+00  5.86222413E-01
  2.27647318E-01  9.37577369E-02  3.32683653E+01  6.09971837E+00  1.70648139E+00
  5.86222413E-01  2.27647318E-01  9.37577369E-02  3.32683653E+01  6.09971837E+00
  1.70648139E+00  5.86222413E-01  2.27647318E-01  9.37577369E-02  3.32683653E+01
  6.09971837E+00  1.70648139E+00  5.86222413E-01  2.27647318E-01  9.37577369E-02
  3.32683653E+01  6.09971837E+00  1.70648139E+00  5.86222413E-01  2.27647318E-01
  9.37577369E-02  3.32683653E+01  6.09971837E+00  1.70648139E+00  5.86222413E-01
  2.27647318E-01  9.37577369E-02  3.32683653E+01  6.09971837E+00  1.70648139E+00
  5.86222413E-01  2.27647318E-01  9.37577369E-02  3.32683653E+01  6.09971837E+00
  1.70648139E+00  5.86222413E-01  2.27647318E-01  9.37577369E-02  3.32683653E+01
  6.09971837E+00  1.70648139E+00  5.86222413E-01  2.27647318E-01  9.37577369E-02
  3.32683653E+01  6.09971837E+00  1.70648139E+00  5.86222413E-01  2.27647318E-01
  9.37577369E-02
Contraction coefficients                   R   N=         246
 -4.15127782E-03 -2.06702415E-02 -5.15030334E-02  3.34627117E-01  5.62106130E-01
  1.71299470E-01  7.92423365E-03  5.14410483E-02  1.89840006E-01  4.04986319E-01
  4.01236286E-01  1.05185519E-01 -4.15127782E-03 -2.06702415E-02 -5.15030334E-02
  3.34627117E-01  5.62106130E-01  1.71299470E-01  7.92423365E-03  5.14410483E-02
  1.89840006E-01  4.04986319E-01  4.01236286E-01  1.05185519E-01 -4.15127782E-03
 -2.06702415E-02 -5.15030334E-02  3.34627117E-01  5.62106130E-01  1.71299470E-01
  7.92423365E-03  5.14410483E-02  1.89840006E-01  4.04986319E-01  4.01236286E-01
  1.05185519E-01 -4.15127782E-03 -2.06702415E-02 -5.15030334E-02  3.34627117E-01
  5.62106130E-01  1.71299470E-01  7.92423365E-03  5.14410483E-02  1.89840006E-01
  4.04986319E-01  4.01236286E-01  1.05185519E-01 -4.15127782E-03 -2.06702415E-02
 -5.15030334E-02  3.34627117E-01  5.62106130E-01  1.71299470E-01  7.92423365E-03
  5.14410483E-02  1.89840006E-01  4.04986319E-01  4.01236286E-01  1.05185519E-01
 -4.15127782E-03 -2.06702415E-02 -5.15030334E-02  3.34627117E-01  5.62106130E-01
  1.71299470E-01  7.92423365E-03  5.14410483E-02  1.89840006E-01  4.04986319E-01
  4.01236286E-01  1.05185519E-01 -4.15127782E-03 -2.06702415E-02 -5.15030334E-02
  3.34627117E-01  5.62106130E-01  1.71299470E-01  7.92423365E-03  5.14410483E-02
  1.89840006E-01  4.04986319E-01  4.01236286E-01  1.05185519E-01 -4.15127782E-03
 -2.06702415E-02 -5.15030334E-02  3.34627117E-01  5.62106130E-01  1.71299470E-01
  7.92423365E-03  5.14410483E-02  1.89840006E-01  4.04986319E-01  4.01236286E-01
  1.05185519E-01 -4.15127782E-03 -2.06702415E-02 -5.15030334E-02  3.34627117E-01
  5.62106130E-01  1.71299470E-01  7.92423365E-03  5.14410483E-02  1.89840006E-01
  4.04986319E-01  4.01236286E-01  1.05185519E-01 -4.15127782E-03 -2.06702415E-02
 -5.15030334E-02  3.34627117E-01  5.62106130E-01  1.71299470E-01  7.92423365E-03
  5.14410483E-02  1.89840006E-01  4.04986319E-01  4.01236286E-01  1.05185519E-01
 -4.15127782E-03 -2.06702415E-02 -5.15030334E-02  3.34627117E-01  5.62106130E-01
  1.71299470E-01  7.92423365E-03  5.14410483E-02  1.89840006E-01  4.04986319E-01
  4.01236286E-01  1.05185519E-01 -4.15127782E-03 -2.06702415E-02 -5.15030334E-02
  3.34627117E-01  5.62106130E-01  1.71299470E-01  7.92423365E-03  5.14410483E-02
  1.89840006E-01  4.04986319E-01  4.01236286E-01  1.05185519E-01 -4.15127782E-03
 -2.06702415E-02 -5.15030334E-02  3.34627117E-01  5.62106130E-01  1.71299470E-01
  7.92423365E-03  5.14410483E-02  1.89840006E-01  4.04986319E-01  4.01236286E-01
  1.05185519E-01 -4.15127782E-03 -2.06702415E-02 -5.15030334E-02  3.34627117E-01
  5.62106130E-01  1.71299470E-01  7.92423365E-03  5.14410483E-02  1.89840006E-01
  4.04986319E-01  4.01236286E-01  1.05185519E-01  9.16359628E-03  4.93614929E-02
  1.68538305E-01  3.70562800E-01  4.16491530E-01  1.30334084E-01  9.16359628E-03
  4.93614929E-02  1.68538305E-01  3.70562800E-01  4.16491530E-01  1.30334084E-01
  9.16359628E-03  4.93614929E-02  1.68538305E-01  3.70562800E-01  4.16491530E-01
  1.30334084E-01  9.16359628E-03  4.93614929E-02  1.68538305E-01  3.70562800E-01
  4.16491530E-01  1.30334084E-01  9.16359628E-03  4.93614929E-02  1.68538305E-01
  3.70562800E-01  4.16491530E-01  1.30334084E-01  9.16359628E-03  4.93614929E-02
  1.68538305E-01  3.70562800E-01  4.16491530E-01  1.30334084E-01  9.16359628E-03
  4.93614929E-02  1.68538305E-01  3.70562800E-01  4.16491530E-01  1.30334084E-01
  9.16359628E-03  4.93614929E-02  1.68538305E-01  3.70562800E-01  4.16491530E-01
  1.30334084E-01  9.16359628E-03  4.93614929E-02  1.68538305E-01  3.70562800E-01
  4.16491530E-01  1.30334084E-01  9.16359628E-03  4.93614929E-02  1.68538305E-01
  3.70562800E-01  4.16491530E-01  1.30334084E-01  9.16359628E-03  4.93614929E-02
  1.68538305E-01  3.70562800E-01  4.16491530E-01  1.30334084E-01  9.16359628E-03
  4.93614929E-02  1.68538305E-01  3.70562800E-01  4.16491530E-01  1.30334084E-01
  9.16359628E-03  4.93614929E-02  1.68538305E-01  3.70562800E-01  4.16491530E-01
  1.30334084E-01
Coordinates of each shell                  R   N=         123
  2.74817201E+00  7.76412876E-01 -1.75239973E+00  2.74817201E+00  7.76412876E-01
 -1.75239973E+00  4.53526711E+00 -1.58283460E-01 -2.38086594E-01  4.53526711E+00
 -1.58283460E-01 -2.38086594E-01  5.93695257E+00 -2.48865592E+00 -8.27416584E-01
  5.93695257E+00 -2.48865592E+00 -8.27416584E-01  5.27435789E+00 -3.87250236E+00
 -2.87387659E+00  5.27435789E+00 -3.87250236E+00 -2.87387659E+00  6.67065763E+00
 -6.02886884E+00 -3.33519653E+00  6.67065763E+00 -6.02886884E+00 -3.33519653E+00
  8.60314826E+00 -6.84829189E+00 -1.80412153E+00  8.60314826E+00 -6.84829189E+00
 -1.80412153E+00  9.12327648E+00 -5.30924224E+00  2.07170675E-01  9.12327648E+00
 -5.30924224E+00  2.07170675E-01  7.84508462E+00 -3.11761347E+00  7.68816177E-01
  7.84508462E+00 -3.11761347E+00  7.68816177E-01  1.10389485E+01 -6.00982040E+00
  1.78159600E+00  1.10389485E+01 -6.00982040E+00  1.78159600E+00  6.21491238E+00
 -7.33002087E+00 -5.50269350E+00  6.21491238E+00 -7.33002087E+00 -5.50269350E+00
  3.89234449E+00 -6.91908103E+00 -6.99179769E+00  3.89234449E+00 -6.91908103E+00
 -6.99179769E+00  3.22502550E+00 -9.51441199E+00 -8.12801442E+00  3.22502550E+00
 -9.51441199E+00 -8.12801442E+00  5.67233422E+00 -1.10835461E+01 -7.99881384E+00
  5.67233422E+00 -1.10835461E+01 -7.99881384E+00  7.28451626E+00 -9.87803309E+00
 -5.89585102E+00  7.28451626E+00 -9.87803309E+00 -5.89585102E+00  1.71188400E+00
  2.48568905E+00 -1.33991031E+00  2.19911209E+00 -1.12325321E-01 -3.51736613E+00
  5.09443707E+00  7.41150586E-01  1.53793471E+00  1.20213605E+01 -7.58297961E+00
  1.43082503E+00  1.14699762E+01 -4.93150488E+00  3.27172063E+00  4.31311091E+00
 -5.48990006E+00 -8.47538387E+00  2.34261789E+00 -6.13669662E+00 -5.80879134E+00
  2.52970077E+00 -9.33492580E+00 -1.00801771E+01  1.70096138E+00 -1.04289260E+01
 -7.03645192E+00  6.68131569E+00 -1.10284228E+01 -9.82304206E+00  5.27843970E+00
 -1.30868825E+01 -7.59862654E+00  9.30514372E+00 -9.68280548E+00 -6.43782447E+00
  7.23719752E+00 -1.09996800E+01 -4.11918721E+00
Num ILSW                                   I              100
ILSW                                       I   N=         100
           0           0           0           0           2           0
           0           0           0           0           0          -1
           5           0           0           0           0           0
           0           0           1           0           0           0
           1           1           0           0           0           0
           0           0      100000           0          -1           0
           0           0           0           0           0           0
           0           0           0           5           0           0
           0 -2000000000           1           0           0           0
           0           0           4          52           0           0
           0           0           0           0           0           0
           0           0           0           0           0           1
           0           0           0           0           0           0
           0           0           0           0           0           0
           0           0           0           0           0           0
           0           0           0           0           0           0
           0           0           0           0
Num RLSW                                   I               52
RLSW                                       R   N=          52
  1.00000000E+00  1.00000000E+00  1.00000000E+00  1.00000000E+00  1.00000000E+00
  0.00000000E+00  0.00000000E+00  1.00000000E+00  0.00000000E+00  0.00000000E+00
  0.00000000E+00  0.00000000E+00  1.00000000E+00  0.00000000E+00  0.00000000E+00
  0.00000000E+00  0.00000000E+00  1.00000000E+00  0.00000000E+00  0.00000000E+00
  0.00000000E+00  0.00000000E+00  1.00000000E+00  0.00000000E+00  0.00000000E+00
  0.00000000E+00  0.00000000E+00  1.00000000E+00  0.00000000E+00  0.00000000E+00
  0.00000000E+00  0.00000000E+00  1.00000000E+00  0.00000000E+00  0.00000000E+00
  0.00000000E+00  0.00000000E+00  0.00000000E+00  1.00000000E+00  1.00000000E+00
  0.00000000E+00  1.00000000E+00  0.00000000E+00  0.00000000E+00  0.00000000E+00
  0.00000000E+00  0.00000000E+00  0.00000000E+00  0.00000000E+00  0.00000000E+00
  0.00000000E+00  0.00000000E+00
MxBond                                     I                4
NBond                                      I   N=          27
           3           3           3           2           3           2
           3           2           3           3           4           4
           4           4           1           1           1           1
           1           1           1           1           1           1
           1           1           1
IBond                                      I   N=         108
           2          15          16           0           1           3
          17           0           2           4           8           0
           3           5           0           0           4           6
          10           0           5           7           0           0
           6           8           9           0           3           7
           0           0           7          18          19           0
           5          11          14           0          10          12
          20          21          11          13          22          23
          12          14          24          25          10          13
          26          27           1           0           0           0
           1           0           0           0           2           0
           0           0           9           0           0           0
           9           0           0           0          11           0
           0           0          11           0           0           0
          12           0           0           0          12           0
           0           0          13           0           0           0
          13           0           0           0          14           0
           0           0          14           0           0           0
RBond                                      R   N=         108
  2.00000000E+00  1.00000000E+00  1.00000000E+00  0.00000000E+00  2.00000000E+00
  1.00000000E+00  1.00000000E+00  0.00000000E+00  1.00000000E+00  1.50000000E+00
  1.50000000E+00  0.00000000E+00  1.50000000E+00  1.00000000E+00  0.00000000E+00
  0.00000000E+00  1.00000000E+00  1.00000000E+00  1.50000000E+00  0.00000000E+00
  1.00000000E+00  1.50000000E+00  0.00000000E+00  0.00000000E+00  1.50000000E+00
  1.00000000E+00  1.50000000E+00  0.00000000E+00  1.50000000E+00  1.00000000E+00
  0.00000000E+00  0.00000000E+00  1.50000000E+00  1.00000000E+00  1.00000000E+00
  0.00000000E+00  1.50000000E+00  1.00000000E+00  1.00000000E+00  0.00000000E+00
  1.00000000E+00  1.00000000E+00  1.00000000E+00  1.00000000E+00  1.00000000E+00
  1.00000000E+00  1.00000000E+00  1.00000000E+00  1.00000000E+00  1.00000000E+00
  1.00000000E+00  1.00000000E+00  1.00000000E+00  1.00000000E+00  1.00000000E+00
  1.00000000E+00  1.00000000E+00  0.00000000E+00  0.00000000E+00  0.00000000E+00
  1.00000000E+00  0.00000000E+00  0.00000000E+00  0.00000000E+00  1.00000000E+00
  0.00000000E+00  0.00000000E+00  0.00000000E+00  1.00000000E+00  0.00000000E+00
  0.00000000E+00  0.00000000E+00  1.00000000E+00  0.00000000E+00  0.00000000E+00
  0.00000000E+00  1.00000000E+00  0.00000000E+00  0.00000000E+00  0.00000000E+00
  1.00000000E+00  0.00000000E+00  0.00000000E+00  0.00000000E+00  1.00000000E+00
  0.00000000E+00  0.00000000E+00  0.00000000E+00  1.00000000E+00  0.00000000E+00
  0.00000000E+00  0.00000000E+00  1.00000000E+00  0.00000000E+00  0.00000000E+00
  0.00000000E+00  1.00000000E+00  0.00000000E+00  0.00000000E+00  0.00000000E+00
  1.00000000E+00  0.00000000E+00  0.00000000E+00  0.00000000E+00  1.00000000E+00
  0.00000000E+00  0.00000000E+00  0.00000000E+00
Virial Ratio                               R      8.761234793678488E-01
SCF Energy                                 R     -1.036272816040560E+02
CIS Energy                                 R     -1.034710846718132E+02
Total Energy                               R     -1.034710846718132E+02
Post-SCF wavefunction norm                 R      1.000000000000000E+00
RMS Density                                R      6.814322180813512E-09
Job Status                                 I                1
Nuclear derivative order                   I                0
External E-field                           R   N=          35
  0.00000000E+00  0.00000000E+00  0.00000000E+00  0.00000000E+00  0.00000000E+00
  0.00000000E+00  0.00000000E+00  0.00000000E+00  0.00000000E+00  0.00000000E+00
  0.00000000E+00  0.00000000E+00  0.00000000E+00  0.00000000E+00  0.00000000E+00
  0.00000000E+00  0.00000000E+00  0.00000000E+00  0.00000000E+00  0.00000000E+00
  0.00000000E+00  0.00000000E+00  0.00000000E+00  0.00000000E+00  0.00000000E+00
  0.00000000E+00  0.00000000E+00  0.00000000E+00  0.00000000E+00  0.00000000E+00
  0.00000000E+00  0.00000000E+00  0.00000000E+00  0.00000000E+00  0.00000000E+00
IOpCl                                      I                0
IROHF                                      I                0
Alpha Orbital Energies                     R   N=          69
 -1.77334436E+00 -1.69332212E+00 -1.50379168E+00 -1.41618263E+00 -1.33339884E+00
 -1.27293530E+00 -1.24049562E+00 -1.17529512E+00 -1.02372433E+00 -1.00586412E+00
 -9.40603357E-01 -8.79514321E-01 -8.61392776E-01 -8.19163303E-01 -8.05692110E-01
 -7.67934672E-01 -6.83440500E-01 -6.59048104E-01 -6.45864678E-01 -6.27115606E-01
 -5.98996259E-01 -5.78789837E-01 -5.69656883E-01 -5.56314826E-01 -5.40621070E-01
 -5.25168528E-01 -4.97324304E-01 -4.91542153E-01 -4.78881843E-01 -4.63295042E-01
 -4.58950474E-01 -4.24636949E-01 -3.67537930E-01 -3.61538872E-01 -3.61006745E-01
 -3.42352321E-01 -3.30337245E-01 -4.62857766E-03  2.32764628E-02  6.23759092E-02
  1.05720422E-01  1.10685137E-01  1.15493720E-01  1.20427789E-01  1.48283928E-01
  1.62520849E-01  1.66312229E-01  1.69571645E-01  1.74604407E-01  2.16211232E-01
  2.19592241E-01  2.37709479E-01  2.42617179E-01  2.44430166E-01  2.51440541E-01
  2.53968395E-01  2.73381480E-01  2.96082781E-01  3.03004810E-01  3.26829619E-01
  3.33269495E-01  3.49283297E-01  3.74567918E-01  3.91958690E-01  3.95196960E-01