title                                                                   
SP        RZINDO CIS                                                  STO-3G              
Number of atoms                            I               33
Info1-9                                    I   N=           9
          41          41           0           0           0         111
           1         108         590
Full Title                                 C   N=           1
title       
Route                                      C   N=           5
#n ZINDO sp IOP(5/33=2) PUNCH=(MO,Coord) pop=full nosymm    
Charge                                     I                0
Multiplicity                               I                1
Number of electrons                        I              112
Number of alpha electrons                  I               56
Number of beta electrons                   I               56
Number of basis functions                  I               96
Number of independent functions            I               96
Number of point charges in /Mol/           I                0
Number of translation vectors              I                0
Atomic numbers                             I   N=          33
           6          16           6           6           6           6
           6           7           7          16           8           8
           6           6           6           6           8           6
           8           8           6           1           1           1
           1           1           1           1           1           1
           1           1           1
Nuclear charges                            R   N=          33
  4.00000000E+00  6.00000000E+00  4.00000000E+00  4.00000000E+00  4.00000000E+00
  4.00000000E+00  4.00000000E+00  5.00000000E+00  5.00000000E+00  6.00000000E+00
  6.00000000E+00  6.00000000E+00  4.00000000E+00  4.00000000E+00  4.00000000E+00
  4.00000000E+00  6.00000000E+00  4.00000000E+00  6.00000000E+00  6.00000000E+00
  4.00000000E+00  1.00000000E+00  1.00000000E+00  1.00000000E+00  1.00000000E+00
  1.00000000E+00  1.00000000E+00  1.00000000E+00  1.00000000E+00  1.00000000E+00
  1.00000000E+00  1.00000000E+00  1.00000000E+00
Current cartesian coordinates              R   N=          99
  1.88745089E+01  7.09259568E+00  1.18628691E+01  1.58486039E+01  6.35667964E+00
  1.33085285E+01  1.35829734E+01  7.21981204E+00  1.10064075E+01  1.09997556E+01
  7.00589505E+00  1.15582075E+01  9.26088633E+00  7.73385534E+00  9.73139034E+00
  1.01365476E+01  8.68448207E+00  7.41146807E+00  1.27800099E+01  8.77297794E+00
  7.00300376E+00  1.44455578E+01  8.05730087E+00  8.76942526E+00  8.49475357E+00
  9.53323366E+00  5.51801918E+00  5.67186178E+00  1.11000812E+01  6.14608856E+00
  5.10093773E+00  1.23660843E+01  3.80927213E+00  3.94535131E+00  9.40102842E+00
  7.34942836E+00  6.64187710E+00  1.33788830E+01  8.33792520E+00  6.62636245E+00
  1.59704912E+01  8.32199480E+00  7.78448111E+00  1.67518741E+01  1.06482288E+01
  8.42156447E+00  1.45699774E+01  1.19028557E+01  7.72586180E+00  1.24653327E+01
  1.05262280E+01  9.69425722E+00  1.41347924E+01  1.43133904E+01  1.04795896E+01
  1.57636229E+01  1.56979171E+01  9.89897126E+00  1.16350249E+01  1.48180795E+01
  1.11824732E+01  1.10338085E+01  1.71155897E+01  2.03801293E+01  6.48459520E+00
  1.31461443E+01  1.90762372E+01  9.12348435E+00  1.14974717E+01  1.91122554E+01
  6.12252367E+00  1.00430440E+01  1.03393908E+01  6.29940204E+00  1.33756705E+01
  7.23989983E+00  7.52870667E+00  1.01174425E+01  1.35833136E+01  9.43738675E+00
  5.21742045E+00  9.20859761E+00  9.66062010E+00  3.73874755E+00  5.91629786E+00
  1.72151782E+01  6.87981252E+00  8.08897268E+00  1.86626140E+01  1.12582891E+01
  1.10640630E+01  8.96567332E+00  1.71752294E+01  1.02179192E+01  1.18969598E+01
  1.87299449E+01  1.31502073E+01  1.16726871E+01  1.70142059E+01
Number of symbols in /Mol/                 I                0
Force Field                                I                0
Atom Types                                 C   N=          33
                                                            
                                                            
                                                            
                                                            
                                                            
                                                            
                                    
Int Atom Types                             I   N=          33
           0           0           0           0           0           0
           0           0           0           0           0           0
           0           0           0           0           0           0
           0           0           0           0           0           0
           0           0           0           0           0           0
           0           0           0
MM charges                                 R   N=          33
  0.00000000E+00  0.00000000E+00  0.00000000E+00  0.00000000E+00  0.00000000E+00
  0.00000000E+00  0.00000000E+00  0.00000000E+00  0.00000000E+00  0.00000000E+00
  0.00000000E+00  0.00000000E+00  0.00000000E+00  0.00000000E+00  0.00000000E+00
  0.00000000E+00  0.00000000E+00  0.00000000E+00  0.00000000E+00  0.00000000E+00
  0.00000000E+00  0.00000000E+00  0.00000000E+00  0.00000000E+00  0.00000000E+00
  0.00000000E+00  0.00000000E+00  0.00000000E+00  0.00000000E+00  0.00000000E+00
  0.00000000E+00  0.00000000E+00  0.00000000E+00
Integer atomic weights                     I   N=          33
          12          32          12          12          12          12
          12          14          14          32          16          16
          12          12          12          12          16          12
          16          16          12           1           1           1
           1           1           1           1           1           1
           1           1           1
Real atomic weights                        R   N=          33
  1.20000000E+01  3.19720718E+01  1.20000000E+01  1.20000000E+01  1.20000000E+01
  1.20000000E+01  1.20000000E+01  1.40030740E+01  1.40030740E+01  3.19720718E+01
  1.59949146E+01  1.59949146E+01  1.20000000E+01  1.20000000E+01  1.20000000E+01
  1.20000000E+01  1.59949146E+01  1.20000000E+01  1.59949146E+01  1.59949146E+01
  1.20000000E+01  1.00782504E+00  1.00782504E+00  1.00782504E+00  1.00782504E+00
  1.00782504E+00  1.00782504E+00  1.00782504E+00  1.00782504E+00  1.00782504E+00
  1.00782504E+00  1.00782504E+00  1.00782504E+00
Atom fragment info                         I   N=          33
           0           0           0           0           0           0
           0           0           0           0           0           0
           0           0           0           0           0           0
           0           0           0           0           0           0
           0           0           0           0           0           0
           0           0           0
Atom residue num                           I   N=          33
           0           0           0           0           0           0
           0           0           0           0           0           0
           0           0           0           0           0           0
           0           0           0           0           0           0
           0           0           0           0           0           0
           0           0           0
Nuclear spins                              I   N=          33
           0           0           0           0           0           0
           0           2           2           0           0           0
           0           0           0           0           0           0
           0           0           0           1           1           1
           1           1           1           1           1           1
           1           1           1
Nuclear ZEff                               R   N=          33
 -3.90000000E+00 -1.92000000E+02 -3.90000000E+00 -3.90000000E+00 -3.90000000E+00
 -3.90000000E+00 -3.90000000E+00 -4.90000000E+00 -4.90000000E+00 -1.92000000E+02
 -6.00000000E+00 -6.00000000E+00 -3.90000000E+00 -3.90000000E+00 -3.90000000E+00
 -3.90000000E+00 -6.00000000E+00 -3.90000000E+00 -6.00000000E+00 -6.00000000E+00
 -3.90000000E+00 -1.00000000E+00 -1.00000000E+00 -1.00000000E+00 -1.00000000E+00
 -1.00000000E+00 -1.00000000E+00 -1.00000000E+00 -1.00000000E+00 -1.00000000E+00
 -1.00000000E+00 -1.00000000E+00 -1.00000000E+00
Nuclear ZNuc                               R   N=          33
  6.00000000E+00  1.60000000E+01  6.00000000E+00  6.00000000E+00  6.00000000E+00
  6.00000000E+00  6.00000000E+00  7.00000000E+00  7.00000000E+00  1.60000000E+01
  8.00000000E+00  8.00000000E+00  6.00000000E+00  6.00000000E+00  6.00000000E+00
  6.00000000E+00  8.00000000E+00  6.00000000E+00  8.00000000E+00  8.00000000E+00
  6.00000000E+00  1.00000000E+00  1.00000000E+00  1.00000000E+00  1.00000000E+00
  1.00000000E+00  1.00000000E+00  1.00000000E+00  1.00000000E+00  1.00000000E+00
  1.00000000E+00  1.00000000E+00  1.00000000E+00
Nuclear QMom                               R   N=          33
  0.00000000E+00  0.00000000E+00  0.00000000E+00  0.00000000E+00  0.00000000E+00
  0.00000000E+00  0.00000000E+00  2.04400000E+00  2.04400000E+00  0.00000000E+00
  0.00000000E+00  0.00000000E+00  0.00000000E+00  0.00000000E+00  0.00000000E+00
  0.00000000E+00  0.00000000E+00  0.00000000E+00  0.00000000E+00  0.00000000E+00
  0.00000000E+00  0.00000000E+00  0.00000000E+00  0.00000000E+00  0.00000000E+00
  0.00000000E+00  0.00000000E+00  0.00000000E+00  0.00000000E+00  0.00000000E+00
  0.00000000E+00  0.00000000E+00  0.00000000E+00
Nuclear GFac                               R   N=          33
  0.00000000E+00  0.00000000E+00  0.00000000E+00  0.00000000E+00  0.00000000E+00
  0.00000000E+00  0.00000000E+00  4.03761000E-01  4.03761000E-01  0.00000000E+00
  0.00000000E+00  0.00000000E+00  0.00000000E+00  0.00000000E+00  0.00000000E+00
  0.00000000E+00  0.00000000E+00  0.00000000E+00  0.00000000E+00  0.00000000E+00
  0.00000000E+00  2.79284600E+00  2.79284600E+00  2.79284600E+00  2.79284600E+00
  2.79284600E+00  2.79284600E+00  2.79284600E+00  2.79284600E+00  2.79284600E+00
  2.79284600E+00  2.79284600E+00  2.79284600E+00
MicOpt                                     I   N=          33
          -1          -1          -1          -1          -1          -1
          -1          -1          -1          -1          -1          -1
          -1          -1          -1          -1          -1          -1
          -1          -1          -1          -1          -1          -1
          -1          -1          -1          -1          -1          -1
          -1          -1          -1
Number of residues                         I                0
Number of secondary structures             I                0
Number of contracted shells                I               54
Number of primitive shells                 I              324
Pure/Cartesian d shells                    I                0
Pure/Cartesian f shells                    I                0
Highest angular momentum                   I                1
Largest degree of contraction              I                6
Shell types                                I   N=          54
           0           1           0           1           0           1
           0           1           0           1           0           1
           0           1           0           1           0           1
           0           1           0           1           0           1
           0           1           0           1           0           1
           0           1           0           1           0           1
           0           1           0           1           0           1
           0           0           0           0           0           0
           0           0           0           0           0           0
Number of primitives per shell             I   N=          54
           6           6           6           6           6           6
           6           6           6           6           6           6
           6           6           6           6           6           6
           6           6           6           6           6           6
           6           6           6           6           6           6
           6           6           6           6           6           6
           6           6           6           6           6           6
           6           6           6           6           6           6
           6           6           6           6           6           6
Shell to atom map                          I   N=          54
           1           1           2           2           3           3
           4           4           5           5           6           6
           7           7           8           8           9           9
          10          10          11          11          12          12
          13          13          14          14          15          15
          16          16          17          17          18          18
          19          19          20          20          21          21
          22          23          24          25          26          27
          28          29          30          31          32          33
Primitive exponents                        R   N=         324
  7.31056039E+01  1.34068245E+01  3.76760691E+00  5.38776153E-01  2.44529755E-01
  1.16614858E-01  1.54959425E+01  4.04102668E+00  1.44591785E+00  6.04421300E-01
  2.76382592E-01  1.30663938E-01  1.08019146E+01  3.03645731E+00  1.18590524E+00
  2.85034662E-01  1.58326662E-01  8.99240265E-02  1.67587235E+01  4.42496934E+00
  7.42045957E-01  3.73506247E-01  2.00538372E-01  1.09418210E-01  7.31056039E+01
  1.34068245E+01  3.76760691E+00  5.38776153E-01  2.44529755E-01  1.16614858E-01
  1.54959425E+01  4.04102668E+00  1.44591785E+00  6.04421300E-01  2.76382592E-01
  1.30663938E-01  7.31056039E+01  1.34068245E+01  3.76760691E+00  5.38776153E-01
  2.44529755E-01  1.16614858E-01  1.54959425E+01  4.04102668E+00  1.44591785E+00
  6.04421300E-01  2.76382592E-01  1.30663938E-01  7.31056039E+01  1.34068245E+01
  3.76760691E+00  5.38776153E-01  2.44529755E-01  1.16614858E-01  1.54959425E+01
  4.04102668E+00  1.44591785E+00  6.04421300E-01  2.76382592E-01  1.30663938E-01
  7.31056039E+01  1.34068245E+01  3.76760691E+00  5.38776153E-01  2.44529755E-01
  1.16614858E-01  1.54959425E+01  4.04102668E+00  1.44591785E+00  6.04421300E-01
  2.76382592E-01  1.30663938E-01  7.31056039E+01  1.34068245E+01  3.76760691E+00
  5.38776153E-01  2.44529755E-01  1.16614858E-01  1.54959425E+01  4.04102668E+00
  1.44591785E+00  6.04421300E-01  2.76382592E-01  1.30663938E-01  1.05272070E+02
  1.93058272E+01  5.42535396E+00  7.75837661E-01  3.52122847E-01  1.67925396E-01
  2.23141572E+01  5.81907842E+00  2.08212170E+00  8.70366672E-01  3.97990932E-01
  1.88156070E-01  1.05272070E+02  1.93058272E+01  5.42535396E+00  7.75837661E-01
  3.52122847E-01  1.67925396E-01  2.23141572E+01  5.81907842E+00  2.08212170E+00
  8.70366672E-01  3.97990932E-01  1.88156070E-01  1.08019146E+01  3.03645731E+00
  1.18590524E+00  2.85034662E-01  1.58326662E-01  8.99240265E-02  1.67587235E+01
  4.42496934E+00  7.42045957E-01  3.73506247E-01  2.00538372E-01  1.09418210E-01
  1.43286984E+02  2.62773760E+01  7.38450955E+00  1.05600126E+00  4.79278319E-01
  2.28565122E-01  3.03720473E+01  7.92041230E+00  2.83399899E+00  1.18466575E+00
  5.41709880E-01  2.56101318E-01  1.43286984E+02  2.62773760E+01  7.38450955E+00
  1.05600126E+00  4.79278319E-01  2.28565122E-01  3.03720473E+01  7.92041230E+00
  2.83399899E+00  1.18466575E+00  5.41709880E-01  2.56101318E-01  7.31056039E+01
  1.34068245E+01  3.76760691E+00  5.38776153E-01  2.44529755E-01  1.16614858E-01
  1.54959425E+01  4.04102668E+00  1.44591785E+00  6.04421300E-01  2.76382592E-01
  1.30663938E-01  7.31056039E+01  1.34068245E+01  3.76760691E+00  5.38776153E-01
  2.44529755E-01  1.16614858E-01  1.54959425E+01  4.04102668E+00  1.44591785E+00
  6.04421300E-01  2.76382592E-01  1.30663938E-01  7.31056039E+01  1.34068245E+01
  3.76760691E+00  5.38776153E-01  2.44529755E-01  1.16614858E-01  1.54959425E+01
  4.04102668E+00  1.44591785E+00  6.04421300E-01  2.76382592E-01  1.30663938E-01
  7.31056039E+01  1.34068245E+01  3.76760691E+00  5.38776153E-01  2.44529755E-01
  1.16614858E-01  1.54959425E+01  4.04102668E+00  1.44591785E+00  6.04421300E-01
  2.76382592E-01  1.30663938E-01  1.43286984E+02  2.62773760E+01  7.38450955E+00
  1.05600126E+00  4.79278319E-01  2.28565122E-01  3.03720473E+01  7.92041230E+00
  2.83399899E+00  1.18466575E+00  5.41709880E-01  2.56101318E-01  7.31056039E+01
  1.34068245E+01  3.76760691E+00  5.38776153E-01  2.44529755E-01  1.16614858E-01
  1.54959425E+01  4.04102668E+00  1.44591785E+00  6.04421300E-01  2.76382592E-01
  1.30663938E-01  1.43286984E+02  2.62773760E+01  7.38450955E+00  1.05600126E+00
  4.79278319E-01  2.28565122E-01  3.03720473E+01  7.92041230E+00  2.83399899E+00
  1.18466575E+00  5.41709880E-01  2.56101318E-01  1.43286984E+02  2.62773760E+01
  7.38450955E+00  1.05600126E+00  4.79278319E-01  2.28565122E-01  3.03720473E+01
  7.92041230E+00  2.83399899E+00  1.18466575E+00  5.41709880E-01  2.56101318E-01
  7.31056039E+01  1.34068245E+01  3.76760691E+00  5.38776153E-01  2.44529755E-01
  1.16614858E-01  1.54959425E+01  4.04102668E+00  1.44591785E+00  6.04421300E-01
  2.76382592E-01  1.30663938E-01  3.32683653E+01  6.09971837E+00  1.70648139E+00
  5.86222413E-01  2.27647318E-01  9.37577369E-02  3.32683653E+01  6.09971837E+00
  1.70648139E+00  5.86222413E-01  2.27647318E-01  9.37577369E-02  3.32683653E+01
  6.09971837E+00  1.70648139E+00  5.86222413E-01  2.27647318E-01  9.37577369E-02
  3.32683653E+01  6.09971837E+00  1.70648139E+00  5.86222413E-01  2.27647318E-01
  9.37577369E-02  3.32683653E+01  6.09971837E+00  1.70648139E+00  5.86222413E-01
  2.27647318E-01  9.37577369E-02  3.32683653E+01  6.09971837E+00  1.70648139E+00
  5.86222413E-01  2.27647318E-01  9.37577369E-02  3.32683653E+01  6.09971837E+00
  1.70648139E+00  5.86222413E-01  2.27647318E-01  9.37577369E-02  3.32683653E+01
  6.09971837E+00  1.70648139E+00  5.86222413E-01  2.27647318E-01  9.37577369E-02
  3.32683653E+01  6.09971837E+00  1.70648139E+00  5.86222413E-01  2.27647318E-01
  9.37577369E-02  3.32683653E+01  6.09971837E+00  1.70648139E+00  5.86222413E-01
  2.27647318E-01  9.37577369E-02  3.32683653E+01  6.09971837E+00  1.70648139E+00
  5.86222413E-01  2.27647318E-01  9.37577369E-02  3.32683653E+01  6.09971837E+00
  1.70648139E+00  5.86222413E-01  2.27647318E-01  9.37577369E-02
Contraction coefficients                   R   N=         324
 -4.15127782E-03 -2.06702415E-02 -5.15030334E-02  3.34627117E-01  5.62106130E-01
  1.71299470E-01  7.92423365E-03  5.14410483E-02  1.89840006E-01  4.04986319E-01
  4.01236286E-01  1.05185519E-01 -6.77559695E-03 -5.63932578E-02 -1.58785609E-01
  5.53452765E-01  5.01535102E-01  7.22363367E-02 -3.32992984E-03 -1.41948834E-02
  1.63939577E-01  4.48535826E-01  3.90881305E-01  7.41145623E-02 -4.15127782E-03
 -2.06702415E-02 -5.15030334E-02  3.34627117E-01  5.62106130E-01  1.71299470E-01
  7.92423365E-03  5.14410483E-02  1.89840006E-01  4.04986319E-01  4.01236286E-01
  1.05185519E-01 -4.15127782E-03 -2.06702415E-02 -5.15030334E-02  3.34627117E-01
  5.62106130E-01  1.71299470E-01  7.92423365E-03  5.14410483E-02  1.89840006E-01
  4.04986319E-01  4.01236286E-01  1.05185519E-01 -4.15127782E-03 -2.06702415E-02
 -5.15030334E-02  3.34627117E-01  5.62106130E-01  1.71299470E-01  7.92423365E-03
  5.14410483E-02  1.89840006E-01  4.04986319E-01  4.01236286E-01  1.05185519E-01
 -4.15127782E-03 -2.06702415E-02 -5.15030334E-02  3.34627117E-01  5.62106130E-01
  1.71299470E-01  7.92423365E-03  5.14410483E-02  1.89840006E-01  4.04986319E-01
  4.01236286E-01  1.05185519E-01 -4.15127782E-03 -2.06702415E-02 -5.15030334E-02
  3.34627117E-01  5.62106130E-01  1.71299470E-01  7.92423365E-03  5.14410483E-02
  1.89840006E-01  4.04986319E-01  4.01236286E-01  1.05185519E-01 -4.15127782E-03
 -2.06702415E-02 -5.15030334E-02  3.34627117E-01  5.62106130E-01  1.71299470E-01
  7.92423365E-03  5.14410483E-02  1.89840006E-01  4.04986319E-01  4.01236286E-01
  1.05185519E-01 -4.15127782E-03 -2.06702415E-02 -5.15030334E-02  3.34627117E-01
  5.62106130E-01  1.71299470E-01  7.92423365E-03  5.14410483E-02  1.89840006E-01
  4.04986319E-01  4.01236286E-01  1.05185519E-01 -6.77559695E-03 -5.63932578E-02
 -1.58785609E-01  5.53452765E-01  5.01535102E-01  7.22363367E-02 -3.32992984E-03
 -1.41948834E-02  1.63939577E-01  4.48535826E-01  3.90881305E-01  7.41145623E-02
 -4.15127782E-03 -2.06702415E-02 -5.15030334E-02  3.34627117E-01  5.62106130E-01
  1.71299470E-01  7.92423365E-03  5.14410483E-02  1.89840006E-01  4.04986319E-01
  4.01236286E-01  1.05185519E-01 -4.15127782E-03 -2.06702415E-02 -5.15030334E-02
  3.34627117E-01  5.62106130E-01  1.71299470E-01  7.92423365E-03  5.14410483E-02
  1.89840006E-01  4.04986319E-01  4.01236286E-01  1.05185519E-01 -4.15127782E-03
 -2.06702415E-02 -5.15030334E-02  3.34627117E-01  5.62106130E-01  1.71299470E-01
  7.92423365E-03  5.14410483E-02  1.89840006E-01  4.04986319E-01  4.01236286E-01
  1.05185519E-01 -4.15127782E-03 -2.06702415E-02 -5.15030334E-02  3.34627117E-01
  5.62106130E-01  1.71299470E-01  7.92423365E-03  5.14410483E-02  1.89840006E-01
  4.04986319E-01  4.01236286E-01  1.05185519E-01 -4.15127782E-03 -2.06702415E-02
 -5.15030334E-02  3.34627117E-01  5.62106130E-01  1.71299470E-01  7.92423365E-03
  5.14410483E-02  1.89840006E-01  4.04986319E-01  4.01236286E-01  1.05185519E-01
 -4.15127782E-03 -2.06702415E-02 -5.15030334E-02  3.34627117E-01  5.62106130E-01
  1.71299470E-01  7.92423365E-03  5.14410483E-02  1.89840006E-01  4.04986319E-01
  4.01236286E-01  1.05185519E-01 -4.15127782E-03 -2.06702415E-02 -5.15030334E-02
  3.34627117E-01  5.62106130E-01  1.71299470E-01  7.92423365E-03  5.14410483E-02
  1.89840006E-01  4.04986319E-01  4.01236286E-01  1.05185519E-01 -4.15127782E-03
 -2.06702415E-02 -5.15030334E-02  3.34627117E-01  5.62106130E-01  1.71299470E-01
  7.92423365E-03  5.14410483E-02  1.89840006E-01  4.04986319E-01  4.01236286E-01
  1.05185519E-01 -4.15127782E-03 -2.06702415E-02 -5.15030334E-02  3.34627117E-01
  5.62106130E-01  1.71299470E-01  7.92423365E-03  5.14410483E-02  1.89840006E-01
  4.04986319E-01  4.01236286E-01  1.05185519E-01 -4.15127782E-03 -2.06702415E-02
 -5.15030334E-02  3.34627117E-01  5.62106130E-01  1.71299470E-01  7.92423365E-03
  5.14410483E-02  1.89840006E-01  4.04986319E-01  4.01236286E-01  1.05185519E-01
 -4.15127782E-03 -2.06702415E-02 -5.15030334E-02  3.34627117E-01  5.62106130E-01
  1.71299470E-01  7.92423365E-03  5.14410483E-02  1.89840006E-01  4.04986319E-01
  4.01236286E-01  1.05185519E-01  9.16359628E-03  4.93614929E-02  1.68538305E-01
  3.70562800E-01  4.16491530E-01  1.30334084E-01  9.16359628E-03  4.93614929E-02
  1.68538305E-01  3.70562800E-01  4.16491530E-01  1.30334084E-01  9.16359628E-03
  4.93614929E-02  1.68538305E-01  3.70562800E-01  4.16491530E-01  1.30334084E-01
  9.16359628E-03  4.93614929E-02  1.68538305E-01  3.70562800E-01  4.16491530E-01
  1.30334084E-01  9.16359628E-03  4.93614929E-02  1.68538305E-01  3.70562800E-01
  4.16491530E-01  1.30334084E-01  9.16359628E-03  4.93614929E-02  1.68538305E-01
  3.70562800E-01  4.16491530E-01  1.30334084E-01  9.16359628E-03  4.93614929E-02
  1.68538305E-01  3.70562800E-01  4.16491530E-01  1.30334084E-01  9.16359628E-03
  4.93614929E-02  1.68538305E-01  3.70562800E-01  4.16491530E-01  1.30334084E-01
  9.16359628E-03  4.93614929E-02  1.68538305E-01  3.70562800E-01  4.16491530E-01
  1.30334084E-01  9.16359628E-03  4.93614929E-02  1.68538305E-01  3.70562800E-01
  4.16491530E-01  1.30334084E-01  9.16359628E-03  4.93614929E-02  1.68538305E-01
  3.70562800E-01  4.16491530E-01  1.30334084E-01  9.16359628E-03  4.93614929E-02
  1.68538305E-01  3.70562800E-01  4.16491530E-01  1.30334084E-01
Coordinates of each shell                  R   N=         162
  1.88745089E+01  7.09259568E+00  1.18628691E+01  1.88745089E+01  7.09259568E+00
  1.18628691E+01  1.58486039E+01  6.35667964E+00  1.33085285E+01  1.58486039E+01
  6.35667964E+00  1.33085285E+01  1.35829734E+01  7.21981204E+00  1.10064075E+01
  1.35829734E+01  7.21981204E+00  1.10064075E+01  1.09997556E+01  7.00589505E+00
  1.15582075E+01  1.09997556E+01  7.00589505E+00  1.15582075E+01  9.26088633E+00
  7.73385534E+00  9.73139034E+00  9.26088633E+00  7.73385534E+00  9.73139034E+00
  1.01365476E+01  8.68448207E+00  7.41146807E+00  1.01365476E+01  8.68448207E+00
  7.41146807E+00  1.27800099E+01  8.77297794E+00  7.00300376E+00  1.27800099E+01
  8.77297794E+00  7.00300376E+00  1.44455578E+01  8.05730087E+00  8.76942526E+00
  1.44455578E+01  8.05730087E+00  8.76942526E+00  8.49475357E+00  9.53323366E+00
  5.51801918E+00  8.49475357E+00  9.53323366E+00  5.51801918E+00  5.67186178E+00
  1.11000812E+01  6.14608856E+00  5.67186178E+00  1.11000812E+01  6.14608856E+00
  5.10093773E+00  1.23660843E+01  3.80927213E+00  5.10093773E+00  1.23660843E+01
  3.80927213E+00  3.94535131E+00  9.40102842E+00  7.34942836E+00  3.94535131E+00
  9.40102842E+00  7.34942836E+00  6.64187710E+00  1.33788830E+01  8.33792520E+00
  6.64187710E+00  1.33788830E+01  8.33792520E+00  6.62636245E+00  1.59704912E+01
  8.32199480E+00  6.62636245E+00  1.59704912E+01  8.32199480E+00  7.78448111E+00
  1.67518741E+01  1.06482288E+01  7.78448111E+00  1.67518741E+01  1.06482288E+01
  8.42156447E+00  1.45699774E+01  1.19028557E+01  8.42156447E+00  1.45699774E+01
  1.19028557E+01  7.72586180E+00  1.24653327E+01  1.05262280E+01  7.72586180E+00
  1.24653327E+01  1.05262280E+01  9.69425722E+00  1.41347924E+01  1.43133904E+01
  9.69425722E+00  1.41347924E+01  1.43133904E+01  1.04795896E+01  1.57636229E+01
  1.56979171E+01  1.04795896E+01  1.57636229E+01  1.56979171E+01  9.89897126E+00
  1.16350249E+01  1.48180795E+01  9.89897126E+00  1.16350249E+01  1.48180795E+01
  1.11824732E+01  1.10338085E+01  1.71155897E+01  1.11824732E+01  1.10338085E+01
  1.71155897E+01  2.03801293E+01  6.48459520E+00  1.31461443E+01  1.90762372E+01
  9.12348435E+00  1.14974717E+01  1.91122554E+01  6.12252367E+00  1.00430440E+01
  1.03393908E+01  6.29940204E+00  1.33756705E+01  7.23989983E+00  7.52870667E+00
  1.01174425E+01  1.35833136E+01  9.43738675E+00  5.21742045E+00  9.20859761E+00
  9.66062010E+00  3.73874755E+00  5.91629786E+00  1.72151782E+01  6.87981252E+00
  8.08897268E+00  1.86626140E+01  1.12582891E+01  1.10640630E+01  8.96567332E+00
  1.71752294E+01  1.02179192E+01  1.18969598E+01  1.87299449E+01  1.31502073E+01
  1.16726871E+01  1.70142059E+01
Num ILSW                                   I              100
ILSW                                       I   N=         100
           0           0           0           0           2           0
           0           0           0           0           0          -1
           5           0           0           0           0           0
           0           0           1           0           0           0
           1           1           0           0           0           0
           0           0      100000           0          -1           0
           0           0           0           0           0           0
           0           0           0           5           0           0
           0 -2000000000           1           0           0           0
           0           0           4          52           0           0
           0           0           0           0           0           0
           0           0           0           0           0           1
           0           0           0           0           0           0
           0           0           0           0           0           0
           0           0           0           0           0           0
           0           0           0           0           0           0
           0           0           0           0
Num RLSW                                   I               52
RLSW                                       R   N=          52
  1.00000000E+00  1.00000000E+00  1.00000000E+00  1.00000000E+00  1.00000000E+00
  0.00000000E+00  0.00000000E+00  1.00000000E+00  0.00000000E+00  0.00000000E+00
  0.00000000E+00  0.00000000E+00  1.00000000E+00  0.00000000E+00  0.00000000E+00
  0.00000000E+00  0.00000000E+00  1.00000000E+00  0.00000000E+00  0.00000000E+00
  0.00000000E+00  0.00000000E+00  1.00000000E+00  0.00000000E+00  0.00000000E+00
  0.00000000E+00  0.00000000E+00  1.00000000E+00  0.00000000E+00  0.00000000E+00
  0.00000000E+00  0.00000000E+00  1.00000000E+00  0.00000000E+00  0.00000000E+00
  0.00000000E+00  0.00000000E+00  0.00000000E+00  1.00000000E+00  1.00000000E+00
  0.00000000E+00  1.00000000E+00  0.00000000E+00  0.00000000E+00  0.00000000E+00
  0.00000000E+00  0.00000000E+00  0.00000000E+00  0.00000000E+00  0.00000000E+00
  0.00000000E+00  0.00000000E+00
MxBond                                     I                4
NBond                                      I   N=          33
           4           2           3           3           3           3
           3           2           3           4           1           1
           3           3           3           3           2           3
           1           2           4           1           1           1
           1           1           1           1           1           1
           1           1           1
IBond                                      I   N=         132
           2          22          23          24           1           3
           0           0           2           4           8           0
           3           5          25           0           4           6
          26           0           5           7           9           0