 Entering Gaussian System, Link 0=g16
 Initial command:
 /opt/apps/pkg/applications/licensed/gaussian/v16/x86_64AVX2/g16/l1.exe "/tmp/259016/657/5260_ZINC000078665069_09/Gau-2125142.inp" -scrdir="/tmp/259016/657/5260_ZINC000078665069_09/"
 Entering Link 1 = /opt/apps/pkg/applications/licensed/gaussian/v16/x86_64AVX2/g16/l1.exe PID=   2125246.
  
 Copyright (c) 1988,1990,1992,1993,1995,1998,2003,2009,2016,
            Gaussian, Inc.  All Rights Reserved.
  
 This is part of the Gaussian(R) 16 program.  It is based on
 the Gaussian(R) 09 system (copyright 2009, Gaussian, Inc.),
 the Gaussian(R) 03 system (copyright 2003, Gaussian, Inc.),
 the Gaussian(R) 98 system (copyright 1998, Gaussian, Inc.),
 the Gaussian(R) 94 system (copyright 1995, Gaussian, Inc.),
 the Gaussian 92(TM) system (copyright 1992, Gaussian, Inc.),
 the Gaussian 90(TM) system (copyright 1990, Gaussian, Inc.),
 the Gaussian 88(TM) system (copyright 1988, Gaussian, Inc.),
 the Gaussian 86(TM) system (copyright 1986, Carnegie Mellon
 University), and the Gaussian 82(TM) system (copyright 1983,
 Carnegie Mellon University). Gaussian is a federally registered
 trademark of Gaussian, Inc.
  
 This software contains proprietary and confidential information,
 including trade secrets, belonging to Gaussian, Inc.
  
 This software is provided under written license and may be
 used, copied, transmitted, or stored only in accord with that
 written license.
  
 The following legend is applicable only to US Government
 contracts under FAR:
  
                    RESTRICTED RIGHTS LEGEND
  
 Use, reproduction and disclosure by the US Government is
 subject to restrictions as set forth in subparagraphs (a)
 and (c) of the Commercial Computer Software - Restricted
 Rights clause in FAR 52.227-19.
  
 Gaussian, Inc.
 340 Quinnipiac St., Bldg. 40, Wallingford CT 06492
  
  
 ---------------------------------------------------------------
 Warning -- This program may not be used in any manner that
 competes with the business of Gaussian, Inc. or will provide
 assistance to any competitor of Gaussian, Inc.  The licensee
 of this program is prohibited from giving any competitor of
 Gaussian, Inc. access to this program.  By using this program,
 the user acknowledges that Gaussian, Inc. is engaged in the
 business of creating and licensing software in the field of
 computational chemistry and represents and warrants to the
 licensee that it is not a competitor of Gaussian, Inc. and that
 it will not use this program in any manner prohibited above.
 ---------------------------------------------------------------
  

 Cite this work as:
 Gaussian 16, Revision A.03,
 M. J. Frisch, G. W. Trucks, H. B. Schlegel, G. E. Scuseria, 
 M. A. Robb, J. R. Cheeseman, G. Scalmani, V. Barone, 
 G. A. Petersson, H. Nakatsuji, X. Li, M. Caricato, A. V. Marenich, 
 J. Bloino, B. G. Janesko, R. Gomperts, B. Mennucci, H. P. Hratchian, 
 J. V. Ortiz, A. F. Izmaylov, J. L. Sonnenberg, D. Williams-Young, 
 F. Ding, F. Lipparini, F. Egidi, J. Goings, B. Peng, A. Petrone, 
 T. Henderson, D. Ranasinghe, V. G. Zakrzewski, J. Gao, N. Rega, 
 G. Zheng, W. Liang, M. Hada, M. Ehara, K. Toyota, R. Fukuda, 
 J. Hasegawa, M. Ishida, T. Nakajima, Y. Honda, O. Kitao, H. Nakai, 
 T. Vreven, K. Throssell, J. A. Montgomery, Jr., J. E. Peralta, 
 F. Ogliaro, M. J. Bearpark, J. J. Heyd, E. N. Brothers, K. N. Kudin, 
 V. N. Staroverov, T. A. Keith, R. Kobayashi, J. Normand, 
 K. Raghavachari, A. P. Rendell, J. C. Burant, S. S. Iyengar, 
 J. Tomasi, M. Cossi, J. M. Millam, M. Klene, C. Adamo, R. Cammi, 
 J. W. Ochterski, R. L. Martin, K. Morokuma, O. Farkas, 
 J. B. Foresman, and D. J. Fox, Gaussian, Inc., Wallingford CT, 2016.
 
 ******************************************
 Gaussian 16:  ES64L-G16RevA.03 25-Dec-2016
                12-Aug-2025 
 ******************************************
 %nproc=4
 Will use up to    4 processors via shared memory.
 %chk=ZINC000078665069_09.chk
 --------------------------------------------------------
 #n ZINDO sp IOP(5/33=2) PUNCH=(MO,Coord) pop=full nosymm
 --------------------------------------------------------
 1/38=1,172=1/1;
 2/12=2,15=1,17=6,18=5,40=1/2;
 3/5=2,25=1,41=400000/1,2,3,8;
 4/5=3,35=1/1;
 5/5=2,33=2,35=1,38=5/2;
 8/6=1/1;
 9/42=1,49=10/14;
 6/7=3/1;
 99/5=1,9=1,10=34/99;
 -----
 title
 -----
 Symbolic Z-matrix:
 Charge =  0 Multiplicity = 1
 C                     9.98796   3.75324   6.27756 
 S                     8.38672   3.36381   7.04257 
 C                     7.1878    3.82056   5.82434 
 C                     5.82082   3.70736   6.11634 
 C                     4.90065   4.09258   5.14963 
 C                     5.36403   4.59563   3.92198 
 C                     6.76289   4.64246   3.70583 
 N                     7.64426   4.26374   4.64058 
 N                     4.49523   5.04477   2.92001 
 S                     3.00142   5.87391   3.25237 
 O                     2.6993    6.54385   2.01578 
 O                     2.08779   4.97481   3.88915 
 C                     3.51473   7.0798    4.41224 
 C                     3.50652   8.45122   4.40381 
 C                     4.11937   8.86471   5.6348 
 C                     4.4565    7.7101    6.29872 
 O                     4.08835   6.59637   5.57024 
 C                     5.12998   7.47981   7.57432 
 O                     5.54556   8.34175   8.30698 
 O                     5.23831   6.15699   7.84139 
 C                     5.91751   5.83884   9.05718 
 H                     10.7847   3.4315    6.95664 
 H                     10.09471   4.82794   6.0842 
 H                     10.11377   3.2399    5.31455 
 H                     5.47137   3.3335    7.0781 
 H                     3.83119   3.98402   5.35392 
 H                     7.18798   4.99405   2.76094 
 H                     4.87298   5.11218   1.97846 
 H                     3.13077   9.10988   3.64064 
 H                     4.2805    9.87583   5.95763 
 H                     5.85485   4.74443   9.08874 
 H                     5.40709   6.2956    9.91146 
 H                     6.95879   6.17692   9.00353 
 
                          Input orientation:                          
 ---------------------------------------------------------------------
 Center     Atomic      Atomic             Coordinates (Angstroms)
 Number     Number       Type             X           Y           Z
 ---------------------------------------------------------------------
      1          6           0        9.987960    3.753240    6.277560
      2         16           0        8.386720    3.363810    7.042570
      3          6           0        7.187800    3.820560    5.824340
      4          6           0        5.820820    3.707360    6.116340
      5          6           0        4.900650    4.092580    5.149630
      6          6           0        5.364030    4.595630    3.921980
      7          6           0        6.762890    4.642460    3.705830
      8          7           0        7.644260    4.263740    4.640580
      9          7           0        4.495230    5.044770    2.920010
     10         16           0        3.001420    5.873910    3.252370
     11          8           0        2.699300    6.543850    2.015780
     12          8           0        2.087790    4.974810    3.889150
     13          6           0        3.514730    7.079800    4.412240
     14          6           0        3.506520    8.451220    4.403810
     15          6           0        4.119370    8.864710    5.634800
     16          6           0        4.456500    7.710100    6.298720
     17          8           0        4.088350    6.596370    5.570240
     18          6           0        5.129980    7.479810    7.574320
     19          8           0        5.545560    8.341750    8.306980
     20          8           0        5.238310    6.156990    7.841390
     21          6           0        5.917510    5.838840    9.057180
     22          1           0       10.784700    3.431500    6.956640
     23          1           0       10.094710    4.827940    6.084200
     24          1           0       10.113770    3.239900    5.314550
     25          1           0        5.471370    3.333500    7.078100
     26          1           0        3.831190    3.984020    5.353920
     27          1           0        7.187980    4.994050    2.760940
     28          1           0        4.872980    5.112180    1.978460
     29          1           0        3.130770    9.109880    3.640640
     30          1           0        4.280500    9.875830    5.957630
     31          1           0        5.854850    4.744430    9.088740
     32          1           0        5.407090    6.295600    9.911460
     33          1           0        6.958790    6.176920    9.003530
 ---------------------------------------------------------------------
                    Distance matrix (angstroms):
                    1          2          3          4          5
     1  C    0.000000
     2  S    1.816828   0.000000
     3  C    2.837400   1.769213   0.000000
     4  C    4.170510   2.749504   1.402395   0.000000
     5  C    5.221887   4.033238   2.400059   1.389113   0.000000
     6  C    5.257291   4.515763   2.746970   2.410995   1.405313
     7  C    4.219666   3.924997   2.311742   2.751811   2.419683
     8  N    2.904005   2.670333   1.343894   2.410884   2.795679
     9  N    6.565918   5.913106   4.145329   3.709768   2.458096
    10  S    7.903212   7.047530   5.325134   4.565663   3.221771
    11  O    8.892403   8.229703   6.485990   5.882530   4.547052
    12  O    8.343226   7.226057   5.575604   4.527949   3.206138
    13  C    7.513197   6.668096   5.109610   4.426665   3.374611
    14  C    8.221376   7.527360   6.083810   5.549140   4.636549
    15  C    7.809009   7.102957   5.907168   5.452070   4.859940
    16  C    6.801047   5.906791   4.776354   4.232796   3.821535
    17  O    6.587039   5.576126   4.168486   3.412632   2.665653
    18  C    6.258505   5.275469   4.548314   4.102968   4.171935
    19  O    6.701335   5.869481   5.413096   5.133444   5.332937
    20  O    5.548221   4.283976   3.650741   3.052180   3.409014
    21  C    5.352063   4.035025   4.017256   3.633331   4.399133
    22  H    1.095199   2.400474   3.790931   5.042054   6.190667
    23  H    1.097162   2.445277   3.087469   4.418469   5.328455
    24  H    1.098515   2.446244   3.026277   4.392130   5.284968
    25  H    4.606151   2.915724   2.180659   1.089435   2.149633
    26  H    6.229943   4.897862   3.393353   2.148593   1.094196
    27  H    4.663273   4.735717   3.280472   3.844920   3.427881
    28  H    6.818504   6.406901   4.670917   4.471462   3.331166
    29  H    9.092194   8.497968   7.014624   6.523242   5.530174
    30  H    8.376369   7.774609   6.718367   6.359858   5.872259
    31  H    5.095860   3.535999   3.645079   3.148307   4.105118
    32  H    6.375986   5.069923   5.099147   4.612277   5.271129
    33  H    4.741414   3.714557   3.963853   3.966052   4.840760
                    6          7          8          9         10
     6  C    0.000000
     7  C    1.416236   0.000000
     8  N    2.413708   1.339403   0.000000
     9  N    1.400173   2.433444   3.672432   0.000000
    10  S    2.768448   3.983811   5.106441   1.740518   0.000000
    11  O    3.811817   4.794196   6.044924   2.508035   1.438489
    12  O    3.298273   4.690482   5.651958   2.596131   1.431289
    13  C    3.135501   4.121915   5.003534   2.707301   1.750130
    14  C    4.306748   5.059424   5.891684   3.844881   2.867659
    15  C    4.765289   5.341958   5.880667   4.701414   3.983801
    16  C    4.021496   4.631731   4.978819   4.303622   3.843059
    17  O    2.889132   3.800915   4.353151   3.097859   2.660054
    18  C    4.659706   5.067757   5.027081   5.291023   5.078281
    19  O    5.770147   6.028036   5.871729   6.402555   6.173489
    20  O    4.220832   4.660580   4.429241   5.099920   5.113014
    21  C    5.312456   5.548237   4.996895   6.349668   6.496201
    22  H    6.320445   5.311228   3.989877   7.645551   8.959153
    23  H    5.206582   4.097813   2.899494   6.435316   7.708961
    24  H    5.131986   3.972852   2.756985   6.368624   7.859778
    25  H    3.400822   3.841042   3.395335   4.601196   5.214455
    26  H    2.184975   3.427041   3.889293   2.736797   2.945626
    27  H    2.198533   1.094136   2.067508   2.697921   4.306152
    28  H    2.070078   2.603114   3.935318   1.016738   2.388685
    29  H    5.044309   5.757985   6.697503   4.348124   3.261746
    30  H    5.761807   6.214582   6.674208   5.710725   4.996983
    31  H    5.192153   5.459913   4.818628   6.323923   6.594013
    32  H    6.226205   6.563605   6.075818   7.160757   7.092852
    33  H    5.555708   5.518928   4.813051   6.660338   6.987735
                   11         12         13         14         15
    11  O    0.000000
    12  O    2.518997   0.000000
    13  C    2.587506   2.596298   0.000000
    14  C    3.161068   3.789868   1.371470   0.000000
    15  C    4.527725   4.722916   2.246363   1.435930   0.000000
    16  C    4.774041   4.347255   2.200685   2.245530   1.373889
    17  O    3.816596   3.075347   1.379749   2.267058   2.269471
    18  C    6.138533   5.395408   3.573205   3.692072   2.588633
    19  O    7.135323   6.542911   4.570097   4.405043   3.073768
    20  O    6.366629   5.190715   3.947325   4.481020   3.667808
    21  C    7.774010   6.490134   5.374830   5.855873   4.909367
    22  H    9.973591   9.350270   8.522707   9.202523   8.700210
    23  H    8.613273   8.303649   7.152794   7.704292   7.225106
    24  H    8.761982   8.334149   7.688064   8.464222   8.226413
    25  H    6.604378   4.930711   4.997000   6.099469   5.874121
    26  H    4.356269   2.483276   3.251271   4.578646   4.897252
    27  H    4.806807   5.223520   4.535406   5.310762   5.714669
    28  H    2.603067   3.380368   3.411694   4.347266   5.293225
    29  H    3.067710   4.271811   2.205452   1.075848   2.239221
    30  H    5.398191   5.753832   3.285182   2.245644   1.073567
    31  H    7.951237   6.424917   5.727108   6.418996   5.649628
    32  H    8.350779   7.002175   5.868340   6.212332   5.152511
    33  H    8.191858   7.164398   5.810050   6.184499   5.160897
                   16         17         18         19         20
    16  C    0.000000
    17  O    1.380801   0.000000
    18  C    1.460741   2.425241   0.000000
    19  O    2.370262   3.558027   1.205171   0.000000
    20  O    2.324480   2.583328   1.353852   2.254851   0.000000
    21  C    3.639405   4.009792   2.347735   2.639262   1.428523
    22  H    7.667163   7.535225   6.981848   7.306337   6.242878
    23  H    6.335793   6.282345   5.822492   6.162984   5.332796
    24  H    7.277086   6.901953   6.922540   7.473423   6.218074
    25  H    4.559827   3.851325   4.189829   5.157346   2.934114
    26  H    3.894526   2.633875   4.340228   5.536194   3.590166
    27  H    5.230086   4.479654   5.795084   6.683053   5.564586
    28  H    5.058388   3.964763   6.081560   7.136712   5.966493
    29  H    3.283646   3.310294   4.704020   5.309987   5.550458
    30  H    2.199478   3.307847   3.012676   3.077860   4.277350
    31  H    4.305205   4.350867   3.209550   3.694255   1.982758
    32  H    3.994537   4.547057   2.634647   2.603893   2.081559
    33  H    3.991002   4.494757   2.661712   2.677478   2.076299
                   21         22         23         24         25
    21  C    0.000000
    22  H    5.822121   0.000000
    23  H    5.225852   1.785296   0.000000
    24  H    6.194382   1.784185   1.764822   0.000000
    25  H    3.223744   5.315622   4.959482   4.966966   0.000000
    26  H    4.637588   7.157185   6.362169   6.326616   2.467015
    27  H    6.478457   5.742983   4.418227   4.261246   4.933766
    28  H    7.192173   7.909197   6.648636   6.488514   5.433977
    29  H    6.914082  10.090714   8.532436   9.274747   7.117662
    30  H    5.346429   9.210430   7.700796   8.858677   6.743568
    31  H    1.096657   5.529291   5.197177   5.886129   2.486052
    32  H    1.094967   6.771464   6.227016   7.254083   4.099524
    33  H    1.096102   5.134655   4.491796   5.673496   3.742290
                   26         27         28         29         30
    26  H    0.000000
    27  H    4.360246   0.000000
    28  H    3.708342   2.446519   0.000000
    29  H    5.449803   5.845929   4.666877   0.000000
    30  H    5.939678   6.519512   6.235157   2.697592   0.000000
    31  H    4.315357   6.471522   7.187168   7.493968   6.213992
    32  H    5.347713   7.483017   8.038547   7.240510   5.451607
    33  H    5.283024   6.357801   7.405125   7.212252   5.489324
                   31         32         33
    31  H    0.000000
    32  H    1.812039   0.000000
    33  H    1.810517   1.801720   0.000000
 Symmetry turned off by external request.
 Stoichiometry    C12H12N2O5S2
 Framework group  C1[X(C12H12N2O5S2)]
 Deg. of freedom    93
 Full point group                 C1      NOp   1
 Rotational constants (GHZ):           0.3756757           0.2108852           0.1549369
 Standard basis: VSTO-6G (5D, 7F)
    96 basis functions,   576 primitive gaussians,    96 cartesian basis functions
    56 alpha electrons       56 beta electrons
       nuclear repulsion energy       903.8566729151 Hartrees.



 Warning!  S  atom   10 may be hypervalent but has no d functions.



 Integral buffers will be    131072 words long.
 Regular integral format.
 Two-electron integral symmetry is turned off.
 Do NDO integrals.
 One-electron integrals computed using PRISM.
 Generate ZINDO/S integrals.
 NDO Nuclear repulsion=   722.450428444072 Hartrees.
 NBasis=    96 RedAO= F EigKep=  0.00D+00  NBF=    96
 NBsUse=    96 1.00D-04 EigRej=  0.00D+00 NBFU=    96
 DipDrv:  will hold  3 matrices at once.
 Simple Huckel Guess.
 A Direct SCF calculation will be performed.
 ReadGW:  IGet=1 IStart=         992 Next=         992 LGW=           0.
 Two-electron integral symmetry not used.
 Pruned (  99, 590) grid will be used in numerical quadrature.
 Closed shell SCF:
 Using DIIS extrapolation, IDIIS=  1040.
 Overlap will be assumed to be unity.
 NBasis=       96 NAllTT=     4656 NAllSq=     9216 NWIIB=         0
 INEq=       1055 IIJ=        1055 ID=         1292
 IDD=       10508 IDA=        1292 IDB=        5948 IF=        10604
 IFF=       19820 IFA=       10604 IFB=       15260 IScr2=     19916
 IV=        20684 IBuf2E=     1152 IMin=      37325
 IOpCl=         0
 NGot=   104857600 LenX=   104836917 LenY=   104827260
 Requested convergence on RMS density matrix=1.00D-08 within 128 cycles.
 Requested convergence on MAX density matrix=1.00D-06.
 Requested convergence on             energy=1.00D-06.
 No special actions if energy rises.
 Fock matrices will be formed incrementally for  20 cycles.
 Selected VarAcc= 1.

 Cycle   1  Pass 1  IDiag  1:
 One-electron energy=-0.169780458849D+04
 FoF2E:  PMaxA= 9.73D-01S
 Calling FoFJK with Acc= 0.00D+00 ICntrl=       0.
 FoF2E:  FMaxA= 1.70D+01S
 ChkPGP:  NMat=1 NMatS=1 NMatT=0
 EA=  804.657388710      0.00000000000      0.00000000000      0.00000000000    
 EB=  804.657388710      0.00000000000      0.00000000000      0.00000000000    
 ETotA=  804.657388710     ETotB=  804.657388710    
 1/2 <PG(P)>=         804.657388710093
 IMat=  1 1/2 <PG(P)>=         804.657388710093
 IMat=  1 EOne=-0.169780458849D+04 ETwo= 0.804657388710D+03 Energy=-0.893147199784D+03
 1/2 <PG(P)>=         804.657388710093
 E= -170.696771340294    
 DIIS: error= 6.99D-02 at cycle   1 NSaved=   1.
 B matrix at iteration          1
                 1             2 
      1   0.000000D+00 -0.100000D+01
      2  -0.100000D+01 -0.429114D+00
 Tr matrix at iteration          1
                 1             2 
      1   0.000000D+00  0.000000D+00
      2   0.000000D+00 -0.442449D+02
 BE matrix at iteration          1
                 1             2 
      1   0.000000D+00 -0.100000D+01
      2  -0.100000D+01  0.000000D+00
 NSaved= 1 IEnMin= 1 EnMin= -170.696771340294     IErMin= 1 ErrMin= 6.99D-02
 ErrMax= 6.99D-02  0.00D+00 EMaxC= 1.00D-01 BMatC= 4.29D-01 BMatP= 4.29D-01
 IDIUse=3 WtCom= 3.01D-01 WtEn= 6.99D-01
 UpdtCf It   0X -170.6967713      1.00000000
 UpdtCf It   0Y -170.6967713      1.00000000
 EnCoef: B12  0.0000000D+00 lambda  0.000000
 UpdtCf It   1F -170.6967713      1.00000000
 UpdtCf It   1B -170.6967713      1.00000000
 Eold -170.6967713403     Efwd -170.6967713403     Ebck -170.6967713403    
 Coeff-Com:  0.100D+01
 Coeff-En:   0.100D+01
 Coeff:      0.100D+01
 NOrbs=    96 LenY=   104827260 NE2=     1091950 LScr= 7
 GapD=    2.000 DampG=2.000 DampE=0.500 DampFc=1.0000 IDamp=-1.
 RMSDP=1.16D-02 MaxDP=2.33D-01              OVMax= 0.00D+00

 Cycle   2  Pass 1  IDiag  1:
 One-electron energy=-0.170031401142D+04
 RMSU=  1.15D-02    CP:  9.89D-01
 FoF2E:  PMaxA= 2.24D-01S
 Calling FoFJK with Acc= 0.00D+00 ICntrl=       0.
 FoF2E:  FMaxA= 3.63D-01S
 ChkPGP:  NMat=1 NMatS=1 NMatT=0
 EA= 0.606265948116E-01  0.00000000000      0.00000000000      0.00000000000    
 EB= 0.606265948116E-01  0.00000000000      0.00000000000      0.00000000000    
 ETotA= 0.606265948116E-01 ETotB= 0.606265948116E-01
 1/2 <PG(P)>=           0.060626594812
 IMat=  1 1/2 <PG(P)>=         806.123554486765
 IMat=  1 EOne=-0.170031401142D+04 ETwo= 0.806123554487D+03 Energy=-0.894190456938D+03
 1/2 <PG(P)>=         806.123554486765
 E= -171.740028493754     Delta-E=       -1.043257153460 Rises=F Damp=F
 DIIS: error= 2.19D-02 at cycle   2 NSaved=   2.
 B matrix at iteration          2
                 1             2             3 
      1   0.000000D+00 -0.100000D+01 -0.100000D+01
      2  -0.100000D+01 -0.429114D+00 -0.180770D-02
      3  -0.100000D+01 -0.180770D-02 -0.413457D-01
 Tr matrix at iteration          2
                 1             2             3 
      1  -0.170697D+03  0.000000D+00  0.000000D+00
      2   0.100000D+01 -0.442449D+02 -0.447395D+02
      3   0.000000D+00 -0.434848D+02 -0.440335D+02
 BE matrix at iteration          2
                 1             2             3 
      1   0.000000D+00 -0.100000D+01 -0.100000D+01
      2  -0.100000D+01  0.000000D+00 -0.539920D-01
      3  -0.100000D+01 -0.539920D-01  0.000000D+00
 NSaved= 2 IEnMin= 2 EnMin= -171.740028493754     IErMin= 2 ErrMin= 2.19D-02
 ErrMax= 2.19D-02  0.00D+00 EMaxC= 1.00D-01 BMatC= 4.13D-02 BMatP= 4.29D-01
 IDIUse=3 WtCom= 7.81D-01 WtEn= 2.19D-01
 Inv2:  IOpt= 1 Iter= 1 AM= 3.35D-16 Conv= 1.00D-12.
  NMat       2 lam      0.000000      B12    -0.053992
 UpdtCf It   0X -171.7400285      0.00000000  1.00000000
  NMat       1 lam      0.000000      B12    -0.053992
 UpdtCf It   0Y -171.7400285      0.00000000  1.00000000
 EnCoef: B12 -0.5399196D-01 lambda  0.000000
 UpdtCf It   1F -171.7400285      0.00000000  1.00000000
 UpdtCf It   1B -171.7400285      0.00000000  1.00000000
 Eold -170.6967713403     Efwd -171.7400284938     Ebck -171.7400284938    
 Coeff-Com:  0.847D-01 0.915D+00
 Coeff-En:   0.000D+00 0.100D+01
 Coeff:      0.662D-01 0.934D+00
 NOrbs=    96 LenY=   104827260 NE2=     1091950 LScr= 7
 RMSDP=2.82D-03 MaxDP=4.76D-02 DE=-1.04D+00 OVMax= 0.00D+00

 Cycle   3  Pass 1  IDiag  1:
 One-electron energy=-0.169981258140D+04
 RMSU=  2.79D-03    CP:  9.88D-01  1.03D+00
 FoF2E:  PMaxA= 5.35D-02S
 Calling FoFJK with Acc= 0.00D+00 ICntrl=       0.
 FoF2E:  FMaxA= 4.17D-02S
 ChkPGP:  NMat=1 NMatS=1 NMatT=0
 EA= 0.488465186568E-02  0.00000000000      0.00000000000      0.00000000000    
 EB= 0.488465186568E-02  0.00000000000      0.00000000000      0.00000000000    
 ETotA= 0.488465186568E-02 ETotB= 0.488465186568E-02
 1/2 <PG(P)>=           0.004884651866
 IMat=  1 1/2 <PG(P)>=         805.548237659001
 IMat=  1 EOne=-0.169981258140D+04 ETwo= 0.805548237659D+03 Energy=-0.894264343744D+03
 1/2 <PG(P)>=         805.548237659001
 E= -171.813915300116     Delta-E=       -0.073886806362 Rises=F Damp=F
 DIIS: error= 5.91D-03 at cycle   3 NSaved=   3.
 B matrix at iteration          3
                 1             2             3             4 
      1   0.000000D+00 -0.100000D+01 -0.100000D+01 -0.100000D+01
      2  -0.100000D+01 -0.429114D+00 -0.180770D-02 -0.293674D-01
      3  -0.100000D+01 -0.180770D-02 -0.413457D-01 -0.648347D-03
      4  -0.100000D+01 -0.293674D-01 -0.648347D-03 -0.320559D-02
 Tr matrix at iteration          3
                 1             2             3             4 
      1  -0.171740D+03  0.000000D+00  0.000000D+00  0.000000D+00
      2   0.000000D+00 -0.442449D+02 -0.447395D+02 -0.447083D+02
      3   0.100000D+01 -0.434848D+02 -0.440335D+02 -0.440704D+02
      4   0.000000D+00 -0.437043D+02 -0.443211D+02 -0.443581D+02
 BE matrix at iteration          3
                 1             2             3             4 
      1   0.000000D+00 -0.100000D+01 -0.100000D+01 -0.100000D+01
      2  -0.100000D+01  0.000000D+00 -0.539920D-01 -0.190411D+00
      3  -0.100000D+01 -0.539920D-01  0.000000D+00  0.360023D-04
      4  -0.100000D+01 -0.190411D+00  0.360023D-04  0.000000D+00
 NSaved= 3 IEnMin= 3 EnMin= -171.813915300116     IErMin= 3 ErrMin= 5.91D-03
 ErrMax= 5.91D-03  0.00D+00 EMaxC= 1.00D-01 BMatC= 3.21D-03 BMatP= 4.13D-02
 IDIUse=3 WtCom= 9.41D-01 WtEn= 5.91D-02
 Inv2:  IOpt= 1 Iter= 1 AM= 1.75D-15 Conv= 1.00D-12.
  NMat       2 lam      0.000000      B12    -0.053992
  NMat       3 lam   1026.639357      B12     0.000036
 UpdtCf It   0X -171.8139153      0.00000000  0.00000000  1.00000000
  NMat       2 lam  -1025.639357      B12     0.000036
  NMat       1 lam      0.000000      B12    -0.190411
 UpdtCf It   0Y -171.8139153      0.00000000  0.00000000  1.00000000
 EnCoef: B12  0.3600233D-04 lambda**********
  NMat       1 lam      0.000000      B12    -0.190411
  NMat       2 lam  -1025.639357      B12     0.000036
  NMat       3 lam      0.000000      B12     0.000000
 UpdtCf It   1F -171.8139153      0.00000000  0.00000000  1.00000000
  NMat       3 lam      0.000000      B12     0.000000
  NMat       2 lam  -1025.639357      B12     0.000036
  NMat       1 lam      0.000000      B12    -0.190411
 UpdtCf It   1B -171.8139153      0.00000000  0.00000000  1.00000000
 Eold -171.7400284938     Efwd -171.8139153001     Ebck -171.8139153001    
 Coeff-Com: -0.687D-01 0.194D-01 0.105D+01
 Coeff-En:   0.000D+00 0.000D+00 0.100D+01
 Coeff:     -0.647D-01 0.182D-01 0.105D+01
 NOrbs=    96 LenY=   104827260 NE2=     1091950 LScr= 7
 RMSDP=1.28D-03 MaxDP=2.06D-02 DE=-7.39D-02 OVMax= 0.00D+00

 Cycle   4  Pass 1  IDiag  1:
 One-electron energy=-0.170003300158D+04
 RMSU=  7.88D-04    CP:  9.85D-01  1.11D+00  1.13D+00
 FoF2E:  PMaxA= 1.58D-02S
 Calling FoFJK with Acc= 0.00D+00 ICntrl=       0.
 FoF2E:  FMaxA= 3.16D-02S
 ChkPGP:  NMat=1 NMatS=1 NMatT=0
 EA= 0.158435241004E-02  0.00000000000      0.00000000000      0.00000000000    
 EB= 0.158435241004E-02  0.00000000000      0.00000000000      0.00000000000    
 ETotA= 0.158435241004E-02 ETotB= 0.158435241004E-02
 1/2 <PG(P)>=           0.001584352410
 IMat=  1 1/2 <PG(P)>=         805.759231835257
 IMat=  1 EOne=-0.170003300158D+04 ETwo= 0.805759231835D+03 Energy=-0.894273769748D+03
 1/2 <PG(P)>=         805.759231835257
 E= -171.823341303942     Delta-E=       -0.009426003826 Rises=F Damp=F
 DIIS: error= 2.34D-03 at cycle   4 NSaved=   4.
 B matrix at iteration          4
                 1             2             3             4             5 
      1   0.000000D+00 -0.100000D+01 -0.100000D+01 -0.100000D+01 -0.100000D+01
      2  -0.100000D+01 -0.429114D+00 -0.180770D-02 -0.293674D-01 -0.823088D-03
      3  -0.100000D+01 -0.180770D-02 -0.413457D-01 -0.648347D-03 -0.148082D-02
      4  -0.100000D+01 -0.293674D-01 -0.648347D-03 -0.320559D-02  0.125546D-04
      5  -0.100000D+01 -0.823088D-03 -0.148082D-02  0.125546D-04 -0.284092D-03
 Tr matrix at iteration          4
                 1             2             3             4             5 
      1  -0.171814D+03  0.000000D+00  0.000000D+00  0.000000D+00  0.000000D+00
      2   0.000000D+00 -0.442449D+02 -0.447395D+02 -0.447083D+02 -0.446959D+02
      3   0.000000D+00 -0.434848D+02 -0.440335D+02 -0.440704D+02 -0.440660D+02
      4   0.100000D+01 -0.437043D+02 -0.443211D+02 -0.443581D+02 -0.443621D+02
      5   0.000000D+00 -0.435817D+02 -0.442065D+02 -0.442519D+02 -0.442573D+02
 BE matrix at iteration          4
                 1             2             3             4             5 
      1   0.000000D+00 -0.100000D+01 -0.100000D+01 -0.100000D+01 -0.100000D+01
      2  -0.100000D+01  0.000000D+00 -0.539920D-01 -0.190411D+00 -0.224546D+00
      3  -0.100000D+01 -0.539920D-01  0.000000D+00  0.360023D-04 -0.181488D-01
      4  -0.100000D+01 -0.190411D+00  0.360023D-04  0.000000D+00 -0.138502D-02
      5  -0.100000D+01 -0.224546D+00 -0.181488D-01 -0.138502D-02  0.000000D+00
 NSaved= 4 IEnMin= 4 EnMin= -171.823341303942     IErMin= 4 ErrMin= 2.34D-03
 ErrMax= 2.34D-03  0.00D+00 EMaxC= 1.00D-01 BMatC= 2.84D-04 BMatP= 3.21D-03
 IDIUse=3 WtCom= 9.77D-01 WtEn= 2.34D-02
 Inv2:  IOpt= 1 Iter= 1 AM= 2.65D-13 Conv= 1.00D-12.
  NMat       2 lam      0.000000      B12    -0.053992
  NMat       3 lam   1026.639357      B12     0.000036
  NMat       4 lam      0.000000      B12    -0.001385
 UpdtCf It   0X -171.8233413      0.00000000  0.00000000  0.00000000  1.00000000
  NMat       3 lam      0.000000      B12    -0.001385
  NMat       2 lam      0.000000      B12    -0.018149
  NMat       1 lam      0.000000      B12    -0.224546
 UpdtCf It   0Y -171.8233413      0.00000000  0.00000000  0.00000000  1.00000000
 EnCoef: B12 -0.1385015D-02 lambda  0.000000
  NMat       1 lam      0.000000      B12    -0.224546
  NMat       2 lam      0.000000      B12    -0.018149
  NMat       3 lam      0.000000      B12    -0.001385
  NMat       4 lam      0.000000      B12     0.000000
 UpdtCf It   1F -171.8233413      0.00000000  0.00000000  0.00000000  1.00000000
  NMat       4 lam      0.000000      B12     0.000000
  NMat       3 lam      0.000000      B12    -0.001385
  NMat       2 lam      0.000000      B12    -0.018149
  NMat       1 lam      0.000000      B12    -0.224546
 UpdtCf It   1B -171.8233413      0.00000000  0.00000000  0.00000000  1.00000000
 Eold -171.8139153001     Efwd -171.8233413039     Ebck -171.8233413039    
 Coeff-Com: -0.149D-01-0.282D-01 0.203D+00 0.840D+00
 Coeff-En:   0.000D+00 0.000D+00 0.000D+00 0.100D+01
 Coeff:     -0.146D-01-0.276D-01 0.198D+00 0.844D+00
 NOrbs=    96 LenY=   104827260 NE2=     1091950 LScr= 7
 RMSDP=3.39D-04 MaxDP=5.79D-03 DE=-9.43D-03 OVMax= 0.00D+00

 Cycle   5  Pass 1  IDiag  1:
 One-electron energy=-0.169993235778D+04
 RMSU=  2.41D-04    CP:  9.85D-01  1.12D+00  1.21D+00  1.01D+00
 FoF2E:  PMaxA= 4.36D-03S
 Calling FoFJK with Acc= 0.00D+00 ICntrl=       0.
 FoF2E:  FMaxA= 4.04D-03S
 ChkPGP:  NMat=1 NMatS=1 NMatT=0
 EA= 0.620354724560E-04  0.00000000000      0.00000000000      0.00000000000    
 EB= 0.620354724560E-04  0.00000000000      0.00000000000      0.00000000000    
 ETotA= 0.620354724560E-04 ETotB= 0.620354724560E-04
 1/2 <PG(P)>=           0.000062035472
 IMat=  1 1/2 <PG(P)>=         805.657826587398
 IMat=  1 EOne=-0.169993235778D+04 ETwo= 0.805657826587D+03 Energy=-0.894274531188D+03
 1/2 <PG(P)>=         805.657826587398
 E= -171.824102744376     Delta-E=       -0.000761440433 Rises=F Damp=F
 DIIS: error= 5.15D-04 at cycle   5 NSaved=   5.
 B matrix at iteration          5
                 1             2             3             4             5 
      1   0.000000D+00 -0.100000D+01 -0.100000D+01 -0.100000D+01 -0.100000D+01
      2  -0.100000D+01 -0.429114D+00 -0.180770D-02 -0.293674D-01 -0.823088D-03
      3  -0.100000D+01 -0.180770D-02 -0.413457D-01 -0.648347D-03 -0.148082D-02
      4  -0.100000D+01 -0.293674D-01 -0.648347D-03 -0.320559D-02  0.125546D-04
      5  -0.100000D+01 -0.823088D-03 -0.148082D-02  0.125546D-04 -0.284092D-03
      6  -0.100000D+01 -0.394184D-03 -0.905073D-04 -0.194952D-03 -0.362757D-06
                 6 
      1  -0.100000D+01
      2  -0.394184D-03
      3  -0.905073D-04
      4  -0.194952D-03
      5  -0.362757D-06
      6  -0.342837D-04
 Tr matrix at iteration          5
                 1             2             3             4             5 
      1  -0.171823D+03  0.000000D+00  0.000000D+00  0.000000D+00  0.000000D+00
      2   0.000000D+00 -0.442449D+02 -0.447395D+02 -0.447083D+02 -0.446959D+02
      3   0.000000D+00 -0.434848D+02 -0.440335D+02 -0.440704D+02 -0.440660D+02
      4   0.000000D+00 -0.437043D+02 -0.443211D+02 -0.443581D+02 -0.443621D+02
      5   0.100000D+01 -0.435817D+02 -0.442065D+02 -0.442519D+02 -0.442573D+02
      6   0.000000D+00 -0.436276D+02 -0.442561D+02 -0.443016D+02 -0.443080D+02
                 6 
      1   0.000000D+00
      2  -0.446915D+02
      3  -0.440652D+02
      4  -0.443615D+02
      5  -0.442577D+02
      6  -0.443084D+02
 BE matrix at iteration          5
                 1             2             3             4             5 
      1   0.000000D+00 -0.100000D+01 -0.100000D+01 -0.100000D+01 -0.100000D+01
      2  -0.100000D+01  0.000000D+00 -0.539920D-01 -0.190411D+00 -0.224546D+00
      3  -0.100000D+01 -0.539920D-01  0.000000D+00  0.360023D-04 -0.181488D-01
      4  -0.100000D+01 -0.190411D+00  0.360023D-04  0.000000D+00 -0.138502D-02
      5  -0.100000D+01 -0.224546D+00 -0.181488D-01 -0.138502D-02  0.000000D+00
      6  -0.100000D+01 -0.234135D+00 -0.204989D-01 -0.324797D-02  0.145183D-04
                 6 
      1  -0.100000D+01
      2  -0.234135D+00
      3  -0.204989D-01
      4  -0.324797D-02
      5   0.145183D-04
      6   0.000000D+00
 NSaved= 5 IEnMin= 5 EnMin= -171.824102744376     IErMin= 5 ErrMin= 5.15D-04
 ErrMax= 5.15D-04  0.00D+00 EMaxC= 1.00D-01 BMatC= 3.43D-05 BMatP= 2.84D-04
 IDIUse=3 WtCom= 9.95D-01 WtEn= 5.15D-03
 Inv2:  IOpt= 1 Iter= 1 AM= 2.16D-12 Conv= 1.00D-12.
 Inv2:  IOpt= 1 Iter= 2 AM= 1.44D-27 Conv= 1.00D-12.
  NMat       2 lam      0.000000      B12    -0.053992
  NMat       3 lam   1026.639357      B12     0.000036
  NMat       4 lam      0.000000      B12    -0.001385
  NMat       5 lam     26.723512      B12     0.000015
 UpdtCf It   0X -171.8241027      0.00000000  0.00000000  0.00000000  0.00000000  1.00000000
  NMat       4 lam    -25.723512      B12     0.000015
  NMat       3 lam      0.000000      B12    -0.003248
  NMat       2 lam      0.000000      B12    -0.020499
  NMat       1 lam      0.000000      B12    -0.234135
 UpdtCf It   0Y -171.8241027      0.00000000  0.00000000  0.00000000  0.00000000  1.00000000
 EnCoef: B12  0.1451828D-04 lambda-25.723512
  NMat       1 lam      0.000000      B12    -0.234135
  NMat       2 lam      0.000000      B12    -0.020499
  NMat       3 lam      0.000000      B12    -0.003248
  NMat       4 lam    -25.723512      B12     0.000015
  NMat       5 lam      0.000000      B12     0.000000
 UpdtCf It   1F -171.8241027      0.00000000  0.00000000  0.00000000  0.00000000  1.00000000
  NMat       5 lam      0.000000      B12     0.000000
  NMat       4 lam    -25.723512      B12     0.000015
  NMat       3 lam      0.000000      B12    -0.003248
  NMat       2 lam      0.000000      B12    -0.020499
  NMat       1 lam      0.000000      B12    -0.234135
 UpdtCf It   1B -171.8241027      0.00000000  0.00000000  0.00000000  0.00000000  1.00000000
 Eold -171.8233413039     Efwd -171.8241027444     Ebck -171.8241027444    
 Coeff-Com:  0.891D-02-0.898D-03-0.145D+00 0.185D-01 0.112D+01
 Coeff-En:   0.000D+00 0.000D+00 0.000D+00 0.000D+00 0.100D+01
 Coeff:      0.886D-02-0.893D-03-0.144D+00 0.184D-01 0.112D+01
 NOrbs=    96 LenY=   104827260 NE2=     1091950 LScr= 7
 RMSDP=1.91D-04 MaxDP=3.00D-03 DE=-7.61D-04 OVMax= 0.00D+00

 Cycle   6  Pass 1  IDiag  1:
 One-electron energy=-0.169995994652D+04
 RMSU=  7.87D-05    CP:  9.85D-01  1.12D+00  1.24D+00  1.19D+00  1.25D+00
 FoF2E:  PMaxA= 1.31D-03S
 Calling FoFJK with Acc= 0.00D+00 ICntrl=       0.
 FoF2E:  FMaxA= 2.37D-03S
 ChkPGP:  NMat=1 NMatS=1 NMatT=0
 EA= 0.961408567842E-05  0.00000000000      0.00000000000      0.00000000000    
 EB= 0.961408567842E-05  0.00000000000      0.00000000000      0.00000000000    
 ETotA= 0.961408567842E-05 ETotB= 0.961408567842E-05
 1/2 <PG(P)>=           0.000009614086
 IMat=  1 1/2 <PG(P)>=         805.685261181709
 IMat=  1 EOne=-0.169995994652D+04 ETwo= 0.805685261182D+03 Energy=-0.894274685337D+03
 1/2 <PG(P)>=         805.685261181709
 E= -171.824256893074     Delta-E=       -0.000154148698 Rises=F Damp=F
 DIIS: error= 1.37D-04 at cycle   6 NSaved=   6.
 B matrix at iteration          6
                 1             2             3             4             5 
      1   0.000000D+00 -0.100000D+01 -0.100000D+01 -0.100000D+01 -0.100000D+01
      2  -0.100000D+01 -0.429114D+00 -0.180770D-02 -0.293674D-01 -0.823088D-03
      3  -0.100000D+01 -0.180770D-02 -0.413457D-01 -0.648347D-03 -0.148082D-02
      4  -0.100000D+01 -0.293674D-01 -0.648347D-03 -0.320559D-02  0.125546D-04
      5  -0.100000D+01 -0.823088D-03 -0.148082D-02  0.125546D-04 -0.284092D-03
      6  -0.100000D+01 -0.394184D-03 -0.905073D-04 -0.194952D-03 -0.362757D-06
      7  -0.100000D+01 -0.213225D-03 -0.915518D-06 -0.254782D-04 -0.135777D-04
                 6             7 
      1  -0.100000D+01 -0.100000D+01
      2  -0.394184D-03 -0.213225D-03
      3  -0.905073D-04 -0.915518D-06
      4  -0.194952D-03 -0.254782D-04
      5  -0.362757D-06 -0.135777D-04
      6  -0.342837D-04 -0.321991D-05
      7  -0.321991D-05 -0.265396D-05
 Tr matrix at iteration          6
                 1             2             3             4             5 
      1  -0.171824D+03  0.000000D+00  0.000000D+00  0.000000D+00  0.000000D+00
      2   0.000000D+00 -0.442449D+02 -0.447395D+02 -0.447083D+02 -0.446959D+02
      3   0.000000D+00 -0.434848D+02 -0.440335D+02 -0.440704D+02 -0.440660D+02
      4   0.000000D+00 -0.437043D+02 -0.443211D+02 -0.443581D+02 -0.443621D+02
      5   0.000000D+00 -0.435817D+02 -0.442065D+02 -0.442519D+02 -0.442573D+02
      6   0.100000D+01 -0.436276D+02 -0.442561D+02 -0.443016D+02 -0.443080D+02
      7   0.000000D+00 -0.436117D+02 -0.442412D+02 -0.442875D+02 -0.442941D+02
                 6             7 
      1   0.000000D+00  0.000000D+00
      2  -0.446915D+02 -0.446894D+02
      3  -0.440652D+02 -0.440642D+02
      4  -0.443615D+02 -0.443612D+02
      5  -0.442577D+02 -0.442576D+02
      6  -0.443084D+02 -0.443084D+02
      7  -0.442946D+02 -0.442947D+02
 BE matrix at iteration          6
                 1             2             3             4             5 
      1   0.000000D+00 -0.100000D+01 -0.100000D+01 -0.100000D+01 -0.100000D+01
      2  -0.100000D+01  0.000000D+00 -0.539920D-01 -0.190411D+00 -0.224546D+00
      3  -0.100000D+01 -0.539920D-01  0.000000D+00  0.360023D-04 -0.181488D-01
      4  -0.100000D+01 -0.190411D+00  0.360023D-04  0.000000D+00 -0.138502D-02
      5  -0.100000D+01 -0.224546D+00 -0.181488D-01 -0.138502D-02  0.000000D+00
      6  -0.100000D+01 -0.234135D+00 -0.204989D-01 -0.324797D-02  0.145183D-04
      7  -0.100000D+01 -0.238465D+00 -0.226982D-01 -0.409279D-02 -0.314787D-03
                 6             7 
      1  -0.100000D+01 -0.100000D+01
      2  -0.234135D+00 -0.238465D+00
      3  -0.204989D-01 -0.226982D-01
      4  -0.324797D-02 -0.409279D-02
      5   0.145183D-04 -0.314787D-03
      6   0.000000D+00 -0.594610D-04
      7  -0.594610D-04  0.000000D+00
 NSaved= 6 IEnMin= 6 EnMin= -171.824256893074     IErMin= 6 ErrMin= 1.37D-04
 ErrMax= 1.37D-04  0.00D+00 EMaxC= 1.00D-01 BMatC= 2.65D-06 BMatP= 3.43D-05
 IDIUse=3 WtCom= 9.99D-01 WtEn= 1.37D-03
 Inv2:  IOpt= 1 Iter= 1 AM= 3.13D-11 Conv= 1.00D-12.
 Inv2:  IOpt= 1 Iter= 2 AM= 3.76D-26 Conv= 1.00D-12.
  NMat       2 lam      0.000000      B12    -0.053992
  NMat       3 lam   1026.639357      B12     0.000036
  NMat       4 lam      0.000000      B12    -0.001385
  NMat       5 lam     26.723512      B12     0.000015
  NMat       6 lam      0.000000      B12    -0.000059
 UpdtCf It   0X -171.8242569      0.00000000  0.00000000  0.00000000  0.00000000  0.00000000  1.00000000
  NMat       5 lam      0.000000      B12    -0.000059
  NMat       4 lam      0.000000      B12    -0.000315
  NMat       3 lam      0.000000      B12    -0.004093
  NMat       2 lam      0.000000      B12    -0.022698
  NMat       1 lam      0.000000      B12    -0.238465
 UpdtCf It   0Y -171.8242569      0.00000000  0.00000000  0.00000000  0.00000000  0.00000000  1.00000000
 EnCoef: B12 -0.5946100D-04 lambda  0.000000
  NMat       1 lam      0.000000      B12    -0.238465
  NMat       2 lam      0.000000      B12    -0.022698
  NMat       3 lam      0.000000      B12    -0.004093
  NMat       4 lam      0.000000      B12    -0.000315
  NMat       5 lam      0.000000      B12    -0.000059
  NMat       6 lam      0.000000      B12     0.000000
 UpdtCf It   1F -171.8242569      0.00000000  0.00000000  0.00000000  0.00000000  0.00000000  1.00000000
  NMat       6 lam      0.000000      B12     0.000000
  NMat       5 lam      0.000000      B12    -0.000059
  NMat       4 lam      0.000000      B12    -0.000315
  NMat       3 lam      0.000000      B12    -0.004093
  NMat       2 lam      0.000000      B12    -0.022698
  NMat       1 lam      0.000000      B12    -0.238465
 UpdtCf It   1B -171.8242569      0.00000000  0.00000000  0.00000000  0.00000000  0.00000000  1.00000000
 Eold -171.8241027444     Efwd -171.8242568931     Ebck -171.8242568931    
 Coeff-Com:  0.878D-03 0.224D-02-0.194D-01-0.577D-01 0.511D-01 0.102D+01
 Coeff-En:   0.000D+00 0.000D+00 0.000D+00 0.000D+00 0.000D+00 0.100D+01
 Coeff:      0.877D-03 0.224D-02-0.194D-01-0.577D-01 0.510D-01 0.102D+01
 NOrbs=    96 LenY=   104827260 NE2=     1091950 LScr= 7
 RMSDP=5.46D-05 MaxDP=8.96D-04 DE=-1.54D-04 OVMax= 0.00D+00

 Cycle   7  Pass 1  IDiag  1:
 One-electron energy=-0.169996018849D+04
 RMSU=  2.37D-05    CP:  9.85D-01  1.12D+00  1.25D+00  1.22D+00  1.37D+00
                    CP:  1.28D+00
 FoF2E:  PMaxA= 4.65D-04S
 Calling FoFJK with Acc= 0.00D+00 ICntrl=       0.
 FoF2E:  FMaxA= 4.81D-04S
 ChkPGP:  NMat=1 NMatS=1 NMatT=0
 EA= 0.224871086474E-06  0.00000000000      0.00000000000      0.00000000000    
 EB= 0.224871086474E-06  0.00000000000      0.00000000000      0.00000000000    
 ETotA= 0.224871086474E-06 ETotB= 0.224871086474E-06
 1/2 <PG(P)>=           0.000000224871
 IMat=  1 1/2 <PG(P)>=         805.685489874410
 IMat=  1 EOne=-0.169996018849D+04 ETwo= 0.805685489874D+03 Energy=-0.894274698614D+03
 1/2 <PG(P)>=         805.685489874410
 E= -171.824270169785     Delta-E=       -0.000013276711 Rises=F Damp=F
 DIIS: error= 6.43D-05 at cycle   7 NSaved=   7.
 B matrix at iteration          7
                 1             2             3             4             5 
      1   0.000000D+00 -0.100000D+01 -0.100000D+01 -0.100000D+01 -0.100000D+01
      2  -0.100000D+01 -0.429114D+00 -0.180770D-02 -0.293674D-01 -0.823088D-03
      3  -0.100000D+01 -0.180770D-02 -0.413457D-01 -0.648347D-03 -0.148082D-02
      4  -0.100000D+01 -0.293674D-01 -0.648347D-03 -0.320559D-02  0.125546D-04
      5  -0.100000D+01 -0.823088D-03 -0.148082D-02  0.125546D-04 -0.284092D-03
      6  -0.100000D+01 -0.394184D-03 -0.905073D-04 -0.194952D-03 -0.362757D-06
      7  -0.100000D+01 -0.213225D-03 -0.915518D-06 -0.254782D-04 -0.135777D-04
      8  -0.100000D+01 -0.547646D-05 -0.419309D-05 -0.991856D-06 -0.202807D-05
                 6             7             8 
      1  -0.100000D+01 -0.100000D+01 -0.100000D+01
      2  -0.394184D-03 -0.213225D-03 -0.547646D-05
      3  -0.905073D-04 -0.915518D-06 -0.419309D-05
      4  -0.194952D-03 -0.254782D-04 -0.991856D-06
      5  -0.362757D-06 -0.135777D-04 -0.202807D-05
      6  -0.342837D-04 -0.321991D-05 -0.142577D-05
      7  -0.321991D-05 -0.265396D-05 -0.537040D-06
      8  -0.142577D-05 -0.537040D-06 -0.370989D-06
 Tr matrix at iteration          7
                 1             2             3             4             5 
      1  -0.171824D+03  0.000000D+00  0.000000D+00  0.000000D+00  0.000000D+00
      2   0.000000D+00 -0.442449D+02 -0.447395D+02 -0.447083D+02 -0.446959D+02
      3   0.000000D+00 -0.434848D+02 -0.440335D+02 -0.440704D+02 -0.440660D+02
      4   0.000000D+00 -0.437043D+02 -0.443211D+02 -0.443581D+02 -0.443621D+02
      5   0.000000D+00 -0.435817D+02 -0.442065D+02 -0.442519D+02 -0.442573D+02
      6   0.000000D+00 -0.436276D+02 -0.442561D+02 -0.443016D+02 -0.443080D+02
      7   0.100000D+01 -0.436117D+02 -0.442412D+02 -0.442875D+02 -0.442941D+02
      8   0.000000D+00 -0.436112D+02 -0.442409D+02 -0.442873D+02 -0.442939D+02
                 6             7             8 
      1   0.000000D+00  0.000000D+00  0.000000D+00
      2  -0.446915D+02 -0.446894D+02 -0.446890D+02
      3  -0.440652D+02 -0.440642D+02 -0.440640D+02
      4  -0.443615D+02 -0.443612D+02 -0.443611D+02
      5  -0.442577D+02 -0.442576D+02 -0.442575D+02
      6  -0.443084D+02 -0.443084D+02 -0.443084D+02
      7  -0.442946D+02 -0.442947D+02 -0.442947D+02
      8  -0.442945D+02 -0.442946D+02 -0.442946D+02
 BE matrix at iteration          7
                 1             2             3             4             5 
      1   0.000000D+00 -0.100000D+01 -0.100000D+01 -0.100000D+01 -0.100000D+01
      2  -0.100000D+01  0.000000D+00 -0.539920D-01 -0.190411D+00 -0.224546D+00
      3  -0.100000D+01 -0.539920D-01  0.000000D+00  0.360023D-04 -0.181488D-01
      4  -0.100000D+01 -0.190411D+00  0.360023D-04  0.000000D+00 -0.138502D-02
      5  -0.100000D+01 -0.224546D+00 -0.181488D-01 -0.138502D-02  0.000000D+00
      6  -0.100000D+01 -0.234135D+00 -0.204989D-01 -0.324797D-02  0.145183D-04
      7  -0.100000D+01 -0.238465D+00 -0.226982D-01 -0.409279D-02 -0.314787D-03
      8  -0.100000D+01 -0.239358D+00 -0.231994D-01 -0.433983D-02 -0.404248D-03
                 6             7             8 
      1  -0.100000D+01 -0.100000D+01 -0.100000D+01
      2  -0.234135D+00 -0.238465D+00 -0.239358D+00
      3  -0.204989D-01 -0.226982D-01 -0.231994D-01
      4  -0.324797D-02 -0.409279D-02 -0.433983D-02
      5   0.145183D-04 -0.314787D-03 -0.404248D-03
      6   0.000000D+00 -0.594610D-04 -0.106706D-03
      7  -0.594610D-04  0.000000D+00 -0.579704D-05
      8  -0.106706D-03 -0.579704D-05  0.000000D+00
 NSaved= 7 IEnMin= 7 EnMin= -171.824270169785     IErMin= 7 ErrMin= 6.43D-05
 ErrMax= 6.43D-05  0.00D+00 EMaxC= 1.00D-01 BMatC= 3.71D-07 BMatP= 2.65D-06
 IDIUse=1 WtCom= 1.00D+00 WtEn= 0.00D+00
 Inv2:  IOpt= 1 Iter= 1 AM= 7.99D-10 Conv= 1.00D-12.
 Inv2:  IOpt= 1 Iter= 2 AM= 1.97D-24 Conv= 1.00D-12.
 Coeff-Com: -0.108D-02-0.151D-03 0.180D-01 0.200D-02-0.123D+00-0.103D+00
 Coeff-Com:  0.121D+01
 Coeff-En:   0.000D+00 0.000D+00 0.000D+00 0.000D+00 0.000D+00 0.000D+00
 Coeff-En:   0.000D+00
 Coeff:     -0.108D-02-0.151D-03 0.180D-01 0.200D-02-0.123D+00-0.103D+00
 Coeff:      0.121D+01
 NOrbs=    96 LenY=   104827260 NE2=     1091950 LScr= 7
 RMSDP=2.78D-05 MaxDP=5.85D-04 DE=-1.33D-05 OVMax= 0.00D+00

 Cycle   8  Pass 1  IDiag  1:
 One-electron energy=-0.169996137940D+04
 RMSU=  9.52D-06    CP:  9.85D-01  1.12D+00  1.25D+00  1.23D+00  1.42D+00
                    CP:  1.51D+00  1.50D+00
 FoF2E:  PMaxA= 1.66D-04S
 Calling FoFJK with Acc= 0.00D+00 ICntrl=       0.
 FoF2E:  FMaxA= 3.00D-04S
 ChkPGP:  NMat=1 NMatS=1 NMatT=0
 EA= 0.155398946883E-06  0.00000000000      0.00000000000      0.00000000000    
 EB= 0.155398946883E-06  0.00000000000      0.00000000000      0.00000000000    
 ETotA= 0.155398946883E-06 ETotB= 0.155398946883E-06
 1/2 <PG(P)>=           0.000000155399
 IMat=  1 1/2 <PG(P)>=         805.686678151780
 IMat=  1 EOne=-0.169996137940D+04 ETwo= 0.805686678152D+03 Energy=-0.894274701246D+03
 1/2 <PG(P)>=         805.686678151780
 E= -171.824272801672     Delta-E=       -0.000002631886 Rises=F Damp=F
 DIIS: error= 2.40D-05 at cycle   8 NSaved=   8.
 B matrix at iteration          8
                 1             2             3             4             5 
      1   0.000000D+00 -0.100000D+01 -0.100000D+01 -0.100000D+01 -0.100000D+01
      2  -0.100000D+01 -0.429114D+00 -0.180770D-02 -0.293674D-01 -0.823088D-03
      3  -0.100000D+01 -0.180770D-02 -0.413457D-01 -0.648347D-03 -0.148082D-02
      4  -0.100000D+01 -0.293674D-01 -0.648347D-03 -0.320559D-02  0.125546D-04
      5  -0.100000D+01 -0.823088D-03 -0.148082D-02  0.125546D-04 -0.284092D-03
      6  -0.100000D+01 -0.394184D-03 -0.905073D-04 -0.194952D-03 -0.362757D-06
      7  -0.100000D+01 -0.213225D-03 -0.915518D-06 -0.254782D-04 -0.135777D-04
      8  -0.100000D+01 -0.547646D-05 -0.419309D-05 -0.991856D-06 -0.202807D-05
      9  -0.100000D+01  0.142297D-04 -0.153634D-05  0.858661D-06 -0.631566D-06
                 6             7             8             9 
      1  -0.100000D+01 -0.100000D+01 -0.100000D+01 -0.100000D+01
      2  -0.394184D-03 -0.213225D-03 -0.547646D-05  0.142297D-04
      3  -0.905073D-04 -0.915518D-06 -0.419309D-05 -0.153634D-05
      4  -0.194952D-03 -0.254782D-04 -0.991856D-06  0.858661D-06
      5  -0.362757D-06 -0.135777D-04 -0.202807D-05 -0.631566D-06
      6  -0.342837D-04 -0.321991D-05 -0.142577D-05 -0.280630D-06
      7  -0.321991D-05 -0.265396D-05 -0.537040D-06 -0.275773D-06
      8  -0.142577D-05 -0.537040D-06 -0.370989D-06 -0.102140D-06
      9  -0.280630D-06 -0.275773D-06 -0.102140D-06 -0.613362D-07
 Tr matrix at iteration          8
                 1             2             3             4             5 
      1  -0.171824D+03  0.000000D+00  0.000000D+00  0.000000D+00  0.000000D+00
      2   0.000000D+00 -0.442449D+02 -0.447395D+02 -0.447083D+02 -0.446959D+02
      3   0.000000D+00 -0.434848D+02 -0.440335D+02 -0.440704D+02 -0.440660D+02
      4   0.000000D+00 -0.437043D+02 -0.443211D+02 -0.443581D+02 -0.443621D+02
      5   0.000000D+00 -0.435817D+02 -0.442065D+02 -0.442519D+02 -0.442573D+02
      6   0.000000D+00 -0.436276D+02 -0.442561D+02 -0.443016D+02 -0.443080D+02
      7   0.100000D+01 -0.436117D+02 -0.442412D+02 -0.442875D+02 -0.442941D+02
      8   0.000000D+00 -0.436112D+02 -0.442409D+02 -0.442873D+02 -0.442939D+02
      9   0.000000D+00 -0.436105D+02 -0.442402D+02 -0.442866D+02 -0.442933D+02
                 6             7             8             9 
      1   0.000000D+00  0.000000D+00  0.000000D+00  0.000000D+00
      2  -0.446915D+02 -0.446894D+02 -0.446890D+02 -0.446889D+02
      3  -0.440652D+02 -0.440642D+02 -0.440640D+02 -0.440639D+02
      4  -0.443615D+02 -0.443612D+02 -0.443611D+02 -0.443610D+02
      5  -0.442577D+02 -0.442576D+02 -0.442575D+02 -0.442575D+02
      6  -0.443084D+02 -0.443084D+02 -0.443084D+02 -0.443084D+02
      7  -0.442946D+02 -0.442947D+02 -0.442947D+02 -0.442947D+02
      8  -0.442945D+02 -0.442946D+02 -0.442946D+02 -0.442946D+02
      9  -0.442939D+02 -0.442940D+02 -0.442940D+02 -0.442940D+02
 BE matrix at iteration          8
                 1             2             3             4             5 
      1   0.000000D+00 -0.100000D+01 -0.100000D+01 -0.100000D+01 -0.100000D+01
      2  -0.100000D+01  0.000000D+00 -0.539920D-01 -0.190411D+00 -0.224546D+00
      3  -0.100000D+01 -0.539920D-01  0.000000D+00  0.360023D-04 -0.181488D-01
      4  -0.100000D+01 -0.190411D+00  0.360023D-04  0.000000D+00 -0.138502D-02
      5  -0.100000D+01 -0.224546D+00 -0.181488D-01 -0.138502D-02  0.000000D+00
      6  -0.100000D+01 -0.234135D+00 -0.204989D-01 -0.324797D-02  0.145183D-04
      7  -0.100000D+01 -0.238465D+00 -0.226982D-01 -0.409279D-02 -0.314787D-03
      8  -0.100000D+01 -0.239358D+00 -0.231994D-01 -0.433983D-02 -0.404248D-03
      9  -0.100000D+01 -0.239581D+00 -0.233383D-01 -0.442161D-02 -0.445047D-03
                 6             7             8             9 
      1  -0.100000D+01 -0.100000D+01 -0.100000D+01 -0.100000D+01
      2  -0.234135D+00 -0.238465D+00 -0.239358D+00 -0.239581D+00
      3  -0.204989D-01 -0.226982D-01 -0.231994D-01 -0.233383D-01
      4  -0.324797D-02 -0.409279D-02 -0.433983D-02 -0.442161D-02
      5   0.145183D-04 -0.314787D-03 -0.404248D-03 -0.445047D-03
      6   0.000000D+00 -0.594610D-04 -0.106706D-03 -0.129028D-03
      7  -0.594610D-04  0.000000D+00 -0.579704D-05 -0.135293D-04
      8  -0.106706D-03 -0.579704D-05  0.000000D+00 -0.157600D-05
      9  -0.129028D-03 -0.135293D-04 -0.157600D-05  0.000000D+00
 NSaved= 8 IEnMin= 8 EnMin= -171.824272801672     IErMin= 8 ErrMin= 2.40D-05
 ErrMax= 2.40D-05  0.00D+00 EMaxC= 1.00D-01 BMatC= 6.13D-08 BMatP= 3.71D-07
 IDIUse=1 WtCom= 1.00D+00 WtEn= 0.00D+00
 Inv2:  IOpt= 1 Iter= 1 AM= 4.87D-09 Conv= 1.00D-12.
 Inv2:  IOpt= 1 Iter= 2 AM= 3.27D-24 Conv= 1.00D-12.
 Coeff-Com: -0.881D-04-0.316D-03 0.291D-02 0.711D-02-0.738D-02-0.153D+00
 Coeff-Com: -0.498D-01 0.120D+01
 Coeff-En:   0.000D+00 0.000D+00 0.000D+00 0.000D+00 0.000D+00 0.000D+00
 Coeff-En:   0.000D+00 0.000D+00
 Coeff:     -0.881D-04-0.316D-03 0.291D-02 0.711D-02-0.738D-02-0.153D+00
 Coeff:     -0.498D-01 0.120D+01
 NOrbs=    96 LenY=   104827260 NE2=     1091950 LScr= 7
 RMSDP=1.24D-05 MaxDP=2.90D-04 DE=-2.63D-06 OVMax= 0.00D+00

 Cycle   9  Pass 1  IDiag  1:
 One-electron energy=-0.169996208115D+04
 RMSU=  2.89D-06    CP:  9.85D-01  1.12D+00  1.25D+00  1.23D+00  1.44D+00
                    CP:  1.60D+00  1.82D+00  1.39D+00
 FoF2E:  PMaxA= 4.75D-05S
 Calling FoFJK with Acc= 0.00D+00 ICntrl=       0.
 FoF2E:  FMaxA= 3.52D-05S
 ChkPGP:  NMat=1 NMatS=1 NMatT=0
 EA=-0.861772068685E-09  0.00000000000      0.00000000000      0.00000000000    
 EB=-0.861772068685E-09  0.00000000000      0.00000000000      0.00000000000    
 ETotA=-0.861772068685E-09 ETotB=-0.861772068685E-09
 1/2 <PG(P)>=          -0.000000000862
 IMat=  1 1/2 <PG(P)>=         805.687379507797
 IMat=  1 EOne=-0.169996208115D+04 ETwo= 0.805687379508D+03 Energy=-0.894274701646D+03
 1/2 <PG(P)>=         805.687379507797
 E= -171.824273202177     Delta-E=       -0.000000400506 Rises=F Damp=F
 DIIS: error= 8.04D-06 at cycle   9 NSaved=   9.
 B matrix at iteration          9
                 1             2             3             4             5 
      1   0.000000D+00 -0.100000D+01 -0.100000D+01 -0.100000D+01 -0.100000D+01
      2  -0.100000D+01 -0.429114D+00 -0.180770D-02 -0.293674D-01 -0.823088D-03
      3  -0.100000D+01 -0.180770D-02 -0.413457D-01 -0.648347D-03 -0.148082D-02
      4  -0.100000D+01 -0.293674D-01 -0.648347D-03 -0.320559D-02  0.125546D-04
      5  -0.100000D+01 -0.823088D-03 -0.148082D-02  0.125546D-04 -0.284092D-03
      6  -0.100000D+01 -0.394184D-03 -0.905073D-04 -0.194952D-03 -0.362757D-06
      7  -0.100000D+01 -0.213225D-03 -0.915518D-06 -0.254782D-04 -0.135777D-04
      8  -0.100000D+01 -0.547646D-05 -0.419309D-05 -0.991856D-06 -0.202807D-05
      9  -0.100000D+01  0.142297D-04 -0.153634D-05  0.858661D-06 -0.631566D-06
     10  -0.100000D+01 -0.685068D-06  0.791537D-06 -0.109778D-06  0.115721D-06
                 6             7             8             9            10 
      1  -0.100000D+01 -0.100000D+01 -0.100000D+01 -0.100000D+01 -0.100000D+01
      2  -0.394184D-03 -0.213225D-03 -0.547646D-05  0.142297D-04 -0.685068D-06
      3  -0.905073D-04 -0.915518D-06 -0.419309D-05 -0.153634D-05  0.791537D-06
      4  -0.194952D-03 -0.254782D-04 -0.991856D-06  0.858661D-06 -0.109778D-06
      5  -0.362757D-06 -0.135777D-04 -0.202807D-05 -0.631566D-06  0.115721D-06
      6  -0.342837D-04 -0.321991D-05 -0.142577D-05 -0.280630D-06 -0.188683D-07
      7  -0.321991D-05 -0.265396D-05 -0.537040D-06 -0.275773D-06 -0.143173D-07
      8  -0.142577D-05 -0.537040D-06 -0.370989D-06 -0.102140D-06 -0.200789D-07
      9  -0.280630D-06 -0.275773D-06 -0.102140D-06 -0.613362D-07 -0.778679D-08
     10  -0.188683D-07 -0.143173D-07 -0.200789D-07 -0.778679D-08 -0.451419D-08
 Tr matrix at iteration          9
                 1             2             3             4             5 
      1  -0.171824D+03  0.000000D+00  0.000000D+00  0.000000D+00  0.000000D+00
      2   0.000000D+00 -0.442449D+02 -0.447395D+02 -0.447083D+02 -0.446959D+02
      3   0.000000D+00 -0.434848D+02 -0.440335D+02 -0.440704D+02 -0.440660D+02
      4   0.000000D+00 -0.437043D+02 -0.443211D+02 -0.443581D+02 -0.443621D+02
      5   0.000000D+00 -0.435817D+02 -0.442065D+02 -0.442519D+02 -0.442573D+02
      6   0.000000D+00 -0.436276D+02 -0.442561D+02 -0.443016D+02 -0.443080D+02
      7   0.100000D+01 -0.436117D+02 -0.442412D+02 -0.442875D+02 -0.442941D+02
      8   0.000000D+00 -0.436112D+02 -0.442409D+02 -0.442873D+02 -0.442939D+02
      9   0.000000D+00 -0.436105D+02 -0.442402D+02 -0.442866D+02 -0.442933D+02
     10   0.000000D+00 -0.436101D+02 -0.442399D+02 -0.442863D+02 -0.442930D+02
                 6             7             8             9            10 
      1   0.000000D+00  0.000000D+00  0.000000D+00  0.000000D+00  0.000000D+00
      2  -0.446915D+02 -0.446894D+02 -0.446890D+02 -0.446889D+02 -0.446888D+02
      3  -0.440652D+02 -0.440642D+02 -0.440640D+02 -0.440639D+02 -0.440639D+02
      4  -0.443615D+02 -0.443612D+02 -0.443611D+02 -0.443610D+02 -0.443610D+02
      5  -0.442577D+02 -0.442576D+02 -0.442575D+02 -0.442575D+02 -0.442575D+02
      6  -0.443084D+02 -0.443084D+02 -0.443084D+02 -0.443084D+02 -0.443084D+02
      7  -0.442946D+02 -0.442947D+02 -0.442947D+02 -0.442947D+02 -0.442947D+02
      8  -0.442945D+02 -0.442946D+02 -0.442946D+02 -0.442946D+02 -0.442946D+02
      9  -0.442939D+02 -0.442940D+02 -0.442940D+02 -0.442940D+02 -0.442940D+02
     10  -0.442935D+02 -0.442936D+02 -0.442937D+02 -0.442937D+02 -0.442937D+02
 BE matrix at iteration          9
                 1             2             3             4             5 
      1   0.000000D+00 -0.100000D+01 -0.100000D+01 -0.100000D+01 -0.100000D+01
      2  -0.100000D+01  0.000000D+00 -0.539920D-01 -0.190411D+00 -0.224546D+00
      3  -0.100000D+01 -0.539920D-01  0.000000D+00  0.360023D-04 -0.181488D-01
      4  -0.100000D+01 -0.190411D+00  0.360023D-04  0.000000D+00 -0.138502D-02
      5  -0.100000D+01 -0.224546D+00 -0.181488D-01 -0.138502D-02  0.000000D+00
      6  -0.100000D+01 -0.234135D+00 -0.204989D-01 -0.324797D-02  0.145183D-04
      7  -0.100000D+01 -0.238465D+00 -0.226982D-01 -0.409279D-02 -0.314787D-03
      8  -0.100000D+01 -0.239358D+00 -0.231994D-01 -0.433983D-02 -0.404248D-03
      9  -0.100000D+01 -0.239581D+00 -0.233383D-01 -0.442161D-02 -0.445047D-03
     10  -0.100000D+01 -0.239642D+00 -0.233758D-01 -0.445039D-02 -0.460563D-03
                 6             7             8             9            10 
      1  -0.100000D+01 -0.100000D+01 -0.100000D+01 -0.100000D+01 -0.100000D+01
      2  -0.234135D+00 -0.238465D+00 -0.239358D+00 -0.239581D+00 -0.239642D+00
      3  -0.204989D-01 -0.226982D-01 -0.231994D-01 -0.233383D-01 -0.233758D-01
      4  -0.324797D-02 -0.409279D-02 -0.433983D-02 -0.442161D-02 -0.445039D-02
      5   0.145183D-04 -0.314787D-03 -0.404248D-03 -0.445047D-03 -0.460563D-03
      6   0.000000D+00 -0.594610D-04 -0.106706D-03 -0.129028D-03 -0.139057D-03
      7  -0.594610D-04  0.000000D+00 -0.579704D-05 -0.135293D-04 -0.177546D-04
      8  -0.106706D-03 -0.579704D-05  0.000000D+00 -0.157600D-05 -0.341250D-05
      9  -0.129028D-03 -0.135293D-04 -0.157600D-05  0.000000D+00 -0.342477D-06
     10  -0.139057D-03 -0.177546D-04 -0.341250D-05 -0.342477D-06  0.000000D+00
 NSaved= 9 IEnMin= 9 EnMin= -171.824273202177     IErMin= 9 ErrMin= 8.04D-06
 ErrMax= 8.04D-06  0.00D+00 EMaxC= 1.00D-01 BMatC= 4.51D-09 BMatP= 6.13D-08
 IDIUse=1 WtCom= 1.00D+00 WtEn= 0.00D+00
 Inv2:  IOpt= 1 Iter= 1 AM= 4.54D-08 Conv= 1.00D-12.
 Inv2:  IOpt= 1 Iter= 2 AM= 7.50D-23 Conv= 1.00D-12.
 Coeff-Com:  0.104D-03 0.337D-04-0.183D-02-0.378D-04 0.118D-01 0.169D-01
 Coeff-Com: -0.106D+00-0.528D-01 0.113D+01
 Coeff-En:   0.000D+00 0.000D+00 0.000D+00 0.000D+00 0.000D+00 0.000D+00
 Coeff-En:   0.000D+00 0.000D+00 0.000D+00
 Coeff:      0.104D-03 0.337D-04-0.183D-02-0.378D-04 0.118D-01 0.169D-01
 Coeff:     -0.106D+00-0.528D-01 0.113D+01
 NOrbs=    96 LenY=   104827260 NE2=     1091950 LScr= 7
 RMSDP=3.06D-06 MaxDP=8.26D-05 DE=-4.01D-07 OVMax= 0.00D+00

 Cycle  10  Pass 1  IDiag  1:
 One-electron energy=-0.169996205492D+04
 RMSU=  1.10D-06    CP:  9.85D-01  1.12D+00  1.25D+00  1.23D+00  1.44D+00
                    CP:  1.62D+00  1.88D+00  1.58D+00  1.36D+00
 FoF2E:  PMaxA= 2.12D-05S
 Calling FoFJK with Acc= 0.00D+00 ICntrl=       0.
 FoF2E:  FMaxA= 2.99D-05S
 ChkPGP:  NMat=1 NMatS=1 NMatT=0
 EA= 0.205356039869E-08  0.00000000000      0.00000000000      0.00000000000    
 EB= 0.205356039869E-08  0.00000000000      0.00000000000      0.00000000000    
 ETotA= 0.205356039869E-08 ETotB= 0.205356039869E-08
 1/2 <PG(P)>=           0.000000002054
 IMat=  1 1/2 <PG(P)>=         805.687353242798
 IMat=  1 EOne=-0.169996205492D+04 ETwo= 0.805687353243D+03 Energy=-0.894274701676D+03
 1/2 <PG(P)>=         805.687353242798
 E= -171.824273231836     Delta-E=       -0.000000029659 Rises=F Damp=F
 DIIS: error= 3.17D-06 at cycle  10 NSaved=  10.
 B matrix at iteration         10
                 1             2             3             4             5 
      1   0.000000D+00 -0.100000D+01 -0.100000D+01 -0.100000D+01 -0.100000D+01
      2  -0.100000D+01 -0.429114D+00 -0.180770D-02 -0.293674D-01 -0.823088D-03
      3  -0.100000D+01 -0.180770D-02 -0.413457D-01 -0.648347D-03 -0.148082D-02
      4  -0.100000D+01 -0.293674D-01 -0.648347D-03 -0.320559D-02  0.125546D-04
      5  -0.100000D+01 -0.823088D-03 -0.148082D-02  0.125546D-04 -0.284092D-03
      6  -0.100000D+01 -0.394184D-03 -0.905073D-04 -0.194952D-03 -0.362757D-06
      7  -0.100000D+01 -0.213225D-03 -0.915518D-06 -0.254782D-04 -0.135777D-04
      8  -0.100000D+01 -0.547646D-05 -0.419309D-05 -0.991856D-06 -0.202807D-05
      9  -0.100000D+01  0.142297D-04 -0.153634D-05  0.858661D-06 -0.631566D-06
     10  -0.100000D+01 -0.685068D-06  0.791537D-06 -0.109778D-06  0.115721D-06
     11  -0.100000D+01 -0.193428D-05  0.343767D-06 -0.241891D-06  0.544690D-07
                 6             7             8             9            10 
      1  -0.100000D+01 -0.100000D+01 -0.100000D+01 -0.100000D+01 -0.100000D+01
      2  -0.394184D-03 -0.213225D-03 -0.547646D-05  0.142297D-04 -0.685068D-06
      3  -0.905073D-04 -0.915518D-06 -0.419309D-05 -0.153634D-05  0.791537D-06
      4  -0.194952D-03 -0.254782D-04 -0.991856D-06  0.858661D-06 -0.109778D-06
      5  -0.362757D-06 -0.135777D-04 -0.202807D-05 -0.631566D-06  0.115721D-06
      6  -0.342837D-04 -0.321991D-05 -0.142577D-05 -0.280630D-06 -0.188683D-07
      7  -0.321991D-05 -0.265396D-05 -0.537040D-06 -0.275773D-06 -0.143173D-07
      8  -0.142577D-05 -0.537040D-06 -0.370989D-06 -0.102140D-06 -0.200789D-07
      9  -0.280630D-06 -0.275773D-06 -0.102140D-06 -0.613362D-07 -0.778679D-08
     10  -0.188683D-07 -0.143173D-07 -0.200789D-07 -0.778679D-08 -0.451419D-08
     11  -0.260817D-07 -0.884750D-08 -0.509635D-08 -0.442964D-08 -0.967480D-09
                11 
      1  -0.100000D+01
      2  -0.193428D-05
      3   0.343767D-06
      4  -0.241891D-06
      5   0.544690D-07
      6  -0.260817D-07
      7  -0.884750D-08
      8  -0.509635D-08
      9  -0.442964D-08
     10  -0.967480D-09
     11  -0.829477D-09
 Tr matrix at iteration         10
                 1             2             3             4             5 
      1  -0.171824D+03  0.000000D+00  0.000000D+00  0.000000D+00  0.000000D+00
      2   0.000000D+00 -0.442449D+02 -0.447395D+02 -0.447083D+02 -0.446959D+02
      3   0.000000D+00 -0.434848D+02 -0.440335D+02 -0.440704D+02 -0.440660D+02
      4   0.000000D+00 -0.437043D+02 -0.443211D+02 -0.443581D+02 -0.443621D+02
      5   0.000000D+00 -0.435817D+02 -0.442065D+02 -0.442519D+02 -0.442573D+02
      6   0.000000D+00 -0.436276D+02 -0.442561D+02 -0.443016D+02 -0.443080D+02
      7   0.100000D+01 -0.436117D+02 -0.442412D+02 -0.442875D+02 -0.442941D+02
      8   0.000000D+00 -0.436112D+02 -0.442409D+02 -0.442873D+02 -0.442939D+02
      9   0.000000D+00 -0.436105D+02 -0.442402D+02 -0.442866D+02 -0.442933D+02
     10   0.000000D+00 -0.436101D+02 -0.442399D+02 -0.442863D+02 -0.442930D+02
     11   0.000000D+00 -0.436101D+02 -0.442399D+02 -0.442863D+02 -0.442930D+02
                 6             7             8             9            10 
      1   0.000000D+00  0.000000D+00  0.000000D+00  0.000000D+00  0.000000D+00
      2  -0.446915D+02 -0.446894D+02 -0.446890D+02 -0.446889D+02 -0.446888D+02
      3  -0.440652D+02 -0.440642D+02 -0.440640D+02 -0.440639D+02 -0.440639D+02
      4  -0.443615D+02 -0.443612D+02 -0.443611D+02 -0.443610D+02 -0.443610D+02
      5  -0.442577D+02 -0.442576D+02 -0.442575D+02 -0.442575D+02 -0.442575D+02
      6  -0.443084D+02 -0.443084D+02 -0.443084D+02 -0.443084D+02 -0.443084D+02
      7  -0.442946D+02 -0.442947D+02 -0.442947D+02 -0.442947D+02 -0.442947D+02
      8  -0.442945D+02 -0.442946D+02 -0.442946D+02 -0.442946D+02 -0.442946D+02
      9  -0.442939D+02 -0.442940D+02 -0.442940D+02 -0.442940D+02 -0.442940D+02
     10  -0.442935D+02 -0.442936D+02 -0.442937D+02 -0.442937D+02 -0.442937D+02
     11  -0.442935D+02 -0.442937D+02 -0.442937D+02 -0.442937D+02 -0.442937D+02
                11 
      1   0.000000D+00
      2  -0.446888D+02
      3  -0.440639D+02
      4  -0.443610D+02
      5  -0.442575D+02
      6  -0.443084D+02
      7  -0.442947D+02
      8  -0.442946D+02
      9  -0.442940D+02
     10  -0.442937D+02
     11  -0.442937D+02
 BE matrix at iteration         10
                 1             2             3             4             5 
      1   0.000000D+00 -0.100000D+01 -0.100000D+01 -0.100000D+01 -0.100000D+01
      2  -0.100000D+01  0.000000D+00 -0.539920D-01 -0.190411D+00 -0.224546D+00
      3  -0.100000D+01 -0.539920D-01  0.000000D+00  0.360023D-04 -0.181488D-01
      4  -0.100000D+01 -0.190411D+00  0.360023D-04  0.000000D+00 -0.138502D-02
      5  -0.100000D+01 -0.224546D+00 -0.181488D-01 -0.138502D-02  0.000000D+00
      6  -0.100000D+01 -0.234135D+00 -0.204989D-01 -0.324797D-02  0.145183D-04
      7  -0.100000D+01 -0.238465D+00 -0.226982D-01 -0.409279D-02 -0.314787D-03
      8  -0.100000D+01 -0.239358D+00 -0.231994D-01 -0.433983D-02 -0.404248D-03
      9  -0.100000D+01 -0.239581D+00 -0.233383D-01 -0.442161D-02 -0.445047D-03
     10  -0.100000D+01 -0.239642D+00 -0.233758D-01 -0.445039D-02 -0.460563D-03
     11  -0.100000D+01 -0.239642D+00 -0.233769D-01 -0.445231D-02 -0.462297D-03
                 6             7             8             9            10 
      1  -0.100000D+01 -0.100000D+01 -0.100000D+01 -0.100000D+01 -0.100000D+01
      2  -0.234135D+00 -0.238465D+00 -0.239358D+00 -0.239581D+00 -0.239642D+00
      3  -0.204989D-01 -0.226982D-01 -0.231994D-01 -0.233383D-01 -0.233758D-01
      4  -0.324797D-02 -0.409279D-02 -0.433983D-02 -0.442161D-02 -0.445039D-02
      5   0.145183D-04 -0.314787D-03 -0.404248D-03 -0.445047D-03 -0.460563D-03
      6   0.000000D+00 -0.594610D-04 -0.106706D-03 -0.129028D-03 -0.139057D-03
      7  -0.594610D-04  0.000000D+00 -0.579704D-05 -0.135293D-04 -0.177546D-04
      8  -0.106706D-03 -0.579704D-05  0.000000D+00 -0.157600D-05 -0.341250D-05
      9  -0.129028D-03 -0.135293D-04 -0.157600D-05  0.000000D+00 -0.342477D-06
     10  -0.139057D-03 -0.177546D-04 -0.341250D-05 -0.342477D-06  0.000000D+00
     11  -0.140388D-03 -0.185386D-04 -0.383068D-05 -0.508056D-06 -0.183395D-07
                11 
      1  -0.100000D+01
      2  -0.239642D+00
      3  -0.233769D-01
      4  -0.445231D-02
      5  -0.462297D-03
      6  -0.140388D-03
      7  -0.185386D-04
      8  -0.383068D-05
      9  -0.508056D-06
     10  -0.183395D-07
     11   0.000000D+00
 NSaved=10 IEnMin=10 EnMin= -171.824273231836     IErMin=10 ErrMin= 3.17D-06
 ErrMax= 3.17D-06  0.00D+00 EMaxC= 1.00D-01 BMatC= 8.29D-10 BMatP= 4.51D-09
 IDIUse=1 WtCom= 1.00D+00 WtEn= 0.00D+00
 Inv2:  IOpt= 1 Iter= 1 AM= 5.29D-07 Conv= 1.00D-12.
 Inv2:  IOpt= 1 Iter= 2 AM= 4.12D-22 Conv= 1.00D-12.
 Coeff-Com:  0.115D-04 0.404D-04-0.464D-03-0.556D-03 0.111D-02 0.188D-01
 Coeff-Com:  0.259D-02-0.174D+00 0.676D-01 0.109D+01
 Coeff-En:   0.000D+00 0.000D+00 0.000D+00 0.000D+00 0.000D+00 0.000D+00
 Coeff-En:   0.000D+00 0.000D+00 0.000D+00 0.000D+00
 Coeff:      0.115D-04 0.404D-04-0.464D-03-0.556D-03 0.111D-02 0.188D-01
 Coeff:      0.259D-02-0.174D+00 0.676D-01 0.109D+01
 NOrbs=    96 LenY=   104827260 NE2=     1091950 LScr= 7
 RMSDP=1.18D-06 MaxDP=2.98D-05 DE=-2.97D-08 OVMax= 0.00D+00

 Cycle  11  Pass 1  IDiag  1:
 One-electron energy=-0.169996209372D+04
 RMSU=  3.72D-07    CP:  9.85D-01  1.12D+00  1.25D+00  1.23D+00  1.44D+00
                    CP:  1.62D+00  1.90D+00  1.64D+00  1.61D+00  1.31D+00
 FoF2E:  PMaxA= 8.99D-06S
 Calling FoFJK with Acc= 0.00D+00 ICntrl=       0.
 FoF2E:  FMaxA= 4.31D-06S
 ChkPGP:  NMat=1 NMatS=1 NMatT=0
 EA= 0.566297851216E-10  0.00000000000      0.00000000000      0.00000000000    
 EB= 0.566297851216E-10  0.00000000000      0.00000000000      0.00000000000    
 ETotA= 0.566297851216E-10 ETotB= 0.566297851216E-10
 1/2 <PG(P)>=           0.000000000057
 IMat=  1 1/2 <PG(P)>=         805.687392035490
 IMat=  1 EOne=-0.169996209372D+04 ETwo= 0.805687392035D+03 Energy=-0.894274701680D+03
 1/2 <PG(P)>=         805.687392035490
 E= -171.824273235885     Delta-E=       -0.000000004049 Rises=F Damp=F
 DIIS: error= 1.06D-06 at cycle  11 NSaved=  11.
 B matrix at iteration         11
                 1             2             3             4             5 
      1   0.000000D+00 -0.100000D+01 -0.100000D+01 -0.100000D+01 -0.100000D+01
      2  -0.100000D+01 -0.429114D+00 -0.180770D-02 -0.293674D-01 -0.823088D-03
      3  -0.100000D+01 -0.180770D-02 -0.413457D-01 -0.648347D-03 -0.148082D-02
      4  -0.100000D+01 -0.293674D-01 -0.648347D-03 -0.320559D-02  0.125546D-04
      5  -0.100000D+01 -0.823088D-03 -0.148082D-02  0.125546D-04 -0.284092D-03
      6  -0.100000D+01 -0.394184D-03 -0.905073D-04 -0.194952D-03 -0.362757D-06
      7  -0.100000D+01 -0.213225D-03 -0.915518D-06 -0.254782D-04 -0.135777D-04
      8  -0.100000D+01 -0.547646D-05 -0.419309D-05 -0.991856D-06 -0.202807D-05
      9  -0.100000D+01  0.142297D-04 -0.153634D-05  0.858661D-06 -0.631566D-06
     10  -0.100000D+01 -0.685068D-06  0.791537D-06 -0.109778D-06  0.115721D-06
     11  -0.100000D+01 -0.193428D-05  0.343767D-06 -0.241891D-06  0.544690D-07
     12  -0.100000D+01 -0.586686D-07  0.477142D-07 -0.384190D-07  0.177878D-07
                 6             7             8             9            10 
      1  -0.100000D+01 -0.100000D+01 -0.100000D+01 -0.100000D+01 -0.100000D+01
      2  -0.394184D-03 -0.213225D-03 -0.547646D-05  0.142297D-04 -0.685068D-06
      3  -0.905073D-04 -0.915518D-06 -0.419309D-05 -0.153634D-05  0.791537D-06
      4  -0.194952D-03 -0.254782D-04 -0.991856D-06  0.858661D-06 -0.109778D-06
      5  -0.362757D-06 -0.135777D-04 -0.202807D-05 -0.631566D-06  0.115721D-06
      6  -0.342837D-04 -0.321991D-05 -0.142577D-05 -0.280630D-06 -0.188683D-07
      7  -0.321991D-05 -0.265396D-05 -0.537040D-06 -0.275773D-06 -0.143173D-07
      8  -0.142577D-05 -0.537040D-06 -0.370989D-06 -0.102140D-06 -0.200789D-07
      9  -0.280630D-06 -0.275773D-06 -0.102140D-06 -0.613362D-07 -0.778679D-08
     10  -0.188683D-07 -0.143173D-07 -0.200789D-07 -0.778679D-08 -0.451419D-08
     11  -0.260817D-07 -0.884750D-08 -0.509635D-08 -0.442964D-08 -0.967480D-09
     12  -0.277601D-08  0.107220D-08  0.646563D-09 -0.473353D-10 -0.242395D-09
                11            12 
      1  -0.100000D+01 -0.100000D+01
      2  -0.193428D-05 -0.586686D-07
      3   0.343767D-06  0.477142D-07
      4  -0.241891D-06 -0.384190D-07
      5   0.544690D-07  0.177878D-07
      6  -0.260817D-07 -0.277601D-08
      7  -0.884750D-08  0.107220D-08
      8  -0.509635D-08  0.646563D-09
      9  -0.442964D-08 -0.473353D-10
     10  -0.967480D-09 -0.242395D-09
     11  -0.829477D-09 -0.721579D-10
     12  -0.721579D-10 -0.732869D-10
 Tr matrix at iteration         11
                 1             2             3             4             5 
      1  -0.171824D+03  0.000000D+00  0.000000D+00  0.000000D+00  0.000000D+00
      2   0.000000D+00 -0.442449D+02 -0.447395D+02 -0.447083D+02 -0.446959D+02
      3   0.000000D+00 -0.434848D+02 -0.440335D+02 -0.440704D+02 -0.440660D+02
      4   0.000000D+00 -0.437043D+02 -0.443211D+02 -0.443581D+02 -0.443621D+02
      5   0.000000D+00 -0.435817D+02 -0.442065D+02 -0.442519D+02 -0.442573D+02
      6   0.000000D+00 -0.436276D+02 -0.442561D+02 -0.443016D+02 -0.443080D+02
      7   0.100000D+01 -0.436117D+02 -0.442412D+02 -0.442875D+02 -0.442941D+02
      8   0.000000D+00 -0.436112D+02 -0.442409D+02 -0.442873D+02 -0.442939D+02
      9   0.000000D+00 -0.436105D+02 -0.442402D+02 -0.442866D+02 -0.442933D+02
     10   0.000000D+00 -0.436101D+02 -0.442399D+02 -0.442863D+02 -0.442930D+02
     11   0.000000D+00 -0.436101D+02 -0.442399D+02 -0.442863D+02 -0.442930D+02
     12   0.000000D+00 -0.436101D+02 -0.442398D+02 -0.442862D+02 -0.442930D+02
                 6             7             8             9            10 
      1   0.000000D+00  0.000000D+00  0.000000D+00  0.000000D+00  0.000000D+00
      2  -0.446915D+02 -0.446894D+02 -0.446890D+02 -0.446889D+02 -0.446888D+02
      3  -0.440652D+02 -0.440642D+02 -0.440640D+02 -0.440639D+02 -0.440639D+02
      4  -0.443615D+02 -0.443612D+02 -0.443611D+02 -0.443610D+02 -0.443610D+02
      5  -0.442577D+02 -0.442576D+02 -0.442575D+02 -0.442575D+02 -0.442575D+02
      6  -0.443084D+02 -0.443084D+02 -0.443084D+02 -0.443084D+02 -0.443084D+02
      7  -0.442946D+02 -0.442947D+02 -0.442947D+02 -0.442947D+02 -0.442947D+02
      8  -0.442945D+02 -0.442946D+02 -0.442946D+02 -0.442946D+02 -0.442946D+02
      9  -0.442939D+02 -0.442940D+02 -0.442940D+02 -0.442940D+02 -0.442940D+02
     10  -0.442935D+02 -0.442936D+02 -0.442937D+02 -0.442937D+02 -0.442937D+02
     11  -0.442935D+02 -0.442937D+02 -0.442937D+02 -0.442937D+02 -0.442937D+02
     12  -0.442935D+02 -0.442936D+02 -0.442937D+02 -0.442937D+02 -0.442937D+02
                11            12 
      1   0.000000D+00  0.000000D+00
      2  -0.446888D+02 -0.446888D+02
      3  -0.440639D+02 -0.440639D+02
      4  -0.443610D+02 -0.443610D+02
      5  -0.442575D+02 -0.442575D+02
      6  -0.443084D+02 -0.443084D+02
      7  -0.442947D+02 -0.442947D+02
      8  -0.442946D+02 -0.442946D+02
      9  -0.442940D+02 -0.442940D+02
     10  -0.442937D+02 -0.442937D+02
     11  -0.442937D+02 -0.442937D+02
     12  -0.442937D+02 -0.442937D+02
 BE matrix at iteration         11
                 1             2             3             4             5 
      1   0.000000D+00 -0.100000D+01 -0.100000D+01 -0.100000D+01 -0.100000D+01
      2  -0.100000D+01  0.000000D+00 -0.539920D-01 -0.190411D+00 -0.224546D+00
      3  -0.100000D+01 -0.539920D-01  0.000000D+00  0.360023D-04 -0.181488D-01
      4  -0.100000D+01 -0.190411D+00  0.360023D-04  0.000000D+00 -0.138502D-02
      5  -0.100000D+01 -0.224546D+00 -0.181488D-01 -0.138502D-02  0.000000D+00
      6  -0.100000D+01 -0.234135D+00 -0.204989D-01 -0.324797D-02  0.145183D-04
      7  -0.100000D+01 -0.238465D+00 -0.226982D-01 -0.409279D-02 -0.314787D-03
      8  -0.100000D+01 -0.239358D+00 -0.231994D-01 -0.433983D-02 -0.404248D-03
      9  -0.100000D+01 -0.239581D+00 -0.233383D-01 -0.442161D-02 -0.445047D-03
     10  -0.100000D+01 -0.239642D+00 -0.233758D-01 -0.445039D-02 -0.460563D-03
     11  -0.100000D+01 -0.239642D+00 -0.233769D-01 -0.445231D-02 -0.462297D-03
     12  -0.100000D+01 -0.239643D+00 -0.233783D-01 -0.445304D-02 -0.462952D-03
                 6             7             8             9            10 
      1  -0.100000D+01 -0.100000D+01 -0.100000D+01 -0.100000D+01 -0.100000D+01
      2  -0.234135D+00 -0.238465D+00 -0.239358D+00 -0.239581D+00 -0.239642D+00
      3  -0.204989D-01 -0.226982D-01 -0.231994D-01 -0.233383D-01 -0.233758D-01
      4  -0.324797D-02 -0.409279D-02 -0.433983D-02 -0.442161D-02 -0.445039D-02
      5   0.145183D-04 -0.314787D-03 -0.404248D-03 -0.445047D-03 -0.460563D-03
      6   0.000000D+00 -0.594610D-04 -0.106706D-03 -0.129028D-03 -0.139057D-03
      7  -0.594610D-04  0.000000D+00 -0.579704D-05 -0.135293D-04 -0.177546D-04
      8  -0.106706D-03 -0.579704D-05  0.000000D+00 -0.157600D-05 -0.341250D-05
      9  -0.129028D-03 -0.135293D-04 -0.157600D-05  0.000000D+00 -0.342477D-06
     10  -0.139057D-03 -0.177546D-04 -0.341250D-05 -0.342477D-06  0.000000D+00
     11  -0.140388D-03 -0.185386D-04 -0.383068D-05 -0.508056D-06 -0.183395D-07
     12  -0.140831D-03 -0.188084D-04 -0.398719D-05 -0.575860D-06 -0.373282D-07
                11            12 
      1  -0.100000D+01 -0.100000D+01
      2  -0.239642D+00 -0.239643D+00
      3  -0.233769D-01 -0.233783D-01
      4  -0.445231D-02 -0.445304D-02
      5  -0.462297D-03 -0.462952D-03
      6  -0.140388D-03 -0.140831D-03
      7  -0.185386D-04 -0.188084D-04
      8  -0.383068D-05 -0.398719D-05
      9  -0.508056D-06 -0.575860D-06
     10  -0.183395D-07 -0.373282D-07
     11   0.000000D+00 -0.303537D-08
     12  -0.303537D-08  0.000000D+00
 NSaved=11 IEnMin=11 EnMin= -171.824273235885     IErMin=11 ErrMin= 1.06D-06
 ErrMax= 1.06D-06  0.00D+00 EMaxC= 1.00D-01 BMatC= 7.33D-11 BMatP= 8.29D-10
 IDIUse=1 WtCom= 1.00D+00 WtEn= 0.00D+00
 Inv2:  IOpt= 1 Iter= 1 AM= 1.36D-05 Conv= 1.00D-12.
 Inv2:  IOpt= 1 Iter= 2 AM= 6.87D-20 Conv= 1.00D-12.
 Coeff-Com: -0.993D-05-0.170D-05 0.159D-03 0.277D-04-0.133D-02-0.771D-03
 Coeff-Com:  0.140D-01-0.498D-02-0.106D+00 0.584D-01 0.104D+01
 Coeff-En:   0.000D+00 0.000D+00 0.000D+00 0.000D+00 0.000D+00 0.000D+00
 Coeff-En:   0.000D+00 0.000D+00 0.000D+00 0.000D+00 0.000D+00
 Coeff:     -0.993D-05-0.170D-05 0.159D-03 0.277D-04-0.133D-02-0.771D-03
 Coeff:      0.140D-01-0.498D-02-0.106D+00 0.584D-01 0.104D+01
 NOrbs=    96 LenY=   104827260 NE2=     1091950 LScr= 7
 RMSDP=3.22D-07 MaxDP=6.72D-06 DE=-4.05D-09 OVMax= 0.00D+00

 Cycle  12  Pass 1  IDiag  1:
 One-electron energy=-0.169996210061D+04
 RMSU=  1.30D-07    CP:  9.85D-01  1.12D+00  1.25D+00  1.23D+00  1.44D+00
                    CP:  1.62D+00  1.90D+00  1.65D+00  1.66D+00  1.49D+00
                    CP:  1.32D+00
 FoF2E:  PMaxA= 2.03D-06S
 Calling FoFJK with Acc= 0.00D+00 ICntrl=       0.
 FoF2E:  FMaxA= 3.90D-06S
 ChkPGP:  NMat=1 NMatS=1 NMatT=0
 EA= 0.256376333447E-10  0.00000000000      0.00000000000      0.00000000000    
 EB= 0.256376333447E-10  0.00000000000      0.00000000000      0.00000000000    
 ETotA= 0.256376333447E-10 ETotB= 0.256376333447E-10
 1/2 <PG(P)>=           0.000000000026
 IMat=  1 1/2 <PG(P)>=         805.687398931392
 IMat=  1 EOne=-0.169996210061D+04 ETwo= 0.805687398931D+03 Energy=-0.894274701680D+03
 1/2 <PG(P)>=         805.687398931392
 E= -171.824273236293     Delta-E=       -0.000000000408 Rises=F Damp=F
 DIIS: error= 4.22D-07 at cycle  12 NSaved=  12.
 B matrix at iteration         12
                 1             2             3             4             5 
      1   0.000000D+00 -0.100000D+01 -0.100000D+01 -0.100000D+01 -0.100000D+01
      2  -0.100000D+01 -0.429114D+00 -0.180770D-02 -0.293674D-01 -0.823088D-03
      3  -0.100000D+01 -0.180770D-02 -0.413457D-01 -0.648347D-03 -0.148082D-02
      4  -0.100000D+01 -0.293674D-01 -0.648347D-03 -0.320559D-02  0.125546D-04
      5  -0.100000D+01 -0.823088D-03 -0.148082D-02  0.125546D-04 -0.284092D-03
      6  -0.100000D+01 -0.394184D-03 -0.905073D-04 -0.194952D-03 -0.362757D-06
      7  -0.100000D+01 -0.213225D-03 -0.915518D-06 -0.254782D-04 -0.135777D-04
      8  -0.100000D+01 -0.547646D-05 -0.419309D-05 -0.991856D-06 -0.202807D-05
      9  -0.100000D+01  0.142297D-04 -0.153634D-05  0.858661D-06 -0.631566D-06
     10  -0.100000D+01 -0.685068D-06  0.791537D-06 -0.109778D-06  0.115721D-06
     11  -0.100000D+01 -0.193428D-05  0.343767D-06 -0.241891D-06  0.544690D-07
     12  -0.100000D+01 -0.586686D-07  0.477142D-07 -0.384190D-07  0.177878D-07
     13  -0.100000D+01  0.106504D-06  0.133151D-07  0.186775D-08  0.944917D-09
                 6             7             8             9            10 
      1  -0.100000D+01 -0.100000D+01 -0.100000D+01 -0.100000D+01 -0.100000D+01
      2  -0.394184D-03 -0.213225D-03 -0.547646D-05  0.142297D-04 -0.685068D-06
[...]
    11  O    0.000000   0.000000   0.000000   0.000000   6.763441   0.000000
    12  O    0.000000   0.000000   0.000000   0.000000   0.000000   6.749264
    13  C    0.000000   0.000000   0.000000   0.000000   0.000000   0.000000
    14  C    0.000000   0.000000   0.000000   0.000000   0.000000   0.000000
    15  C    0.000000   0.000000   0.000000   0.000000   0.000000   0.000000
    16  C    0.000000   0.000000   0.000000   0.000000   0.000000   0.000000
    17  O    0.000000   0.000000   0.000000   0.000000   0.000000   0.000000
    18  C    0.000000   0.000000   0.000000   0.000000   0.000000   0.000000
    19  O    0.000000   0.000000   0.000000   0.000000   0.000000   0.000000
    20  O    0.000000   0.000000   0.000000   0.000000   0.000000   0.000000
    21  C    0.000000   0.000000   0.000000   0.000000   0.000000   0.000000
    22  H    0.000000   0.000000   0.000000   0.000000   0.000000   0.000000
    23  H    0.000000   0.000000   0.000000   0.000000   0.000000   0.000000
    24  H    0.000000   0.000000   0.000000   0.000000   0.000000   0.000000
    25  H    0.000000   0.000000   0.000000   0.000000   0.000000   0.000000
    26  H    0.000000   0.000000   0.000000   0.000000   0.000000   0.000000
    27  H    0.000000   0.000000   0.000000   0.000000   0.000000   0.000000
    28  H    0.000000   0.000000   0.000000   0.000000   0.000000   0.000000
    29  H    0.000000   0.000000   0.000000   0.000000   0.000000   0.000000
    30  H    0.000000   0.000000   0.000000   0.000000   0.000000   0.000000
    31  H    0.000000   0.000000   0.000000   0.000000   0.000000   0.000000
    32  H    0.000000   0.000000   0.000000   0.000000   0.000000   0.000000
    33  H    0.000000   0.000000   0.000000   0.000000   0.000000   0.000000
              13         14         15         16         17         18
     1  C    0.000000   0.000000   0.000000   0.000000   0.000000   0.000000
     2  S    0.000000   0.000000   0.000000   0.000000   0.000000   0.000000
     3  C    0.000000   0.000000   0.000000   0.000000   0.000000   0.000000
     4  C    0.000000   0.000000   0.000000   0.000000   0.000000   0.000000
     5  C    0.000000   0.000000   0.000000   0.000000   0.000000   0.000000
     6  C    0.000000   0.000000   0.000000   0.000000   0.000000   0.000000
     7  C    0.000000   0.000000   0.000000   0.000000   0.000000   0.000000
     8  N    0.000000   0.000000   0.000000   0.000000   0.000000   0.000000
     9  N    0.000000   0.000000   0.000000   0.000000   0.000000   0.000000
    10  S    0.000000   0.000000   0.000000   0.000000   0.000000   0.000000
    11  O    0.000000   0.000000   0.000000   0.000000   0.000000   0.000000
    12  O    0.000000   0.000000   0.000000   0.000000   0.000000   0.000000
    13  C    3.846705   0.000000   0.000000   0.000000   0.000000   0.000000
    14  C    0.000000   3.997522   0.000000   0.000000   0.000000   0.000000
    15  C    0.000000   0.000000   3.998676   0.000000   0.000000   0.000000
    16  C    0.000000   0.000000   0.000000   3.884812   0.000000   0.000000
    17  O    0.000000   0.000000   0.000000   0.000000   6.189943   0.000000
    18  C    0.000000   0.000000   0.000000   0.000000   0.000000   3.514660
    19  O    0.000000   0.000000   0.000000   0.000000   0.000000   0.000000
    20  O    0.000000   0.000000   0.000000   0.000000   0.000000   0.000000
    21  C    0.000000   0.000000   0.000000   0.000000   0.000000   0.000000
    22  H    0.000000   0.000000   0.000000   0.000000   0.000000   0.000000
    23  H    0.000000   0.000000   0.000000   0.000000   0.000000   0.000000
    24  H    0.000000   0.000000   0.000000   0.000000   0.000000   0.000000
    25  H    0.000000   0.000000   0.000000   0.000000   0.000000   0.000000
    26  H    0.000000   0.000000   0.000000   0.000000   0.000000   0.000000
    27  H    0.000000   0.000000   0.000000   0.000000   0.000000   0.000000
    28  H    0.000000   0.000000   0.000000   0.000000   0.000000   0.000000
    29  H    0.000000   0.000000   0.000000   0.000000   0.000000   0.000000
    30  H    0.000000   0.000000   0.000000   0.000000   0.000000   0.000000
    31  H    0.000000   0.000000   0.000000   0.000000   0.000000   0.000000
    32  H    0.000000   0.000000   0.000000   0.000000   0.000000   0.000000
    33  H    0.000000   0.000000   0.000000   0.000000   0.000000   0.000000
              19         20         21         22         23         24
     1  C    0.000000   0.000000   0.000000   0.000000   0.000000   0.000000
     2  S    0.000000   0.000000   0.000000   0.000000   0.000000   0.000000
     3  C    0.000000   0.000000   0.000000   0.000000   0.000000   0.000000
     4  C    0.000000   0.000000   0.000000   0.000000   0.000000   0.000000
     5  C    0.000000   0.000000   0.000000   0.000000   0.000000   0.000000
     6  C    0.000000   0.000000   0.000000   0.000000   0.000000   0.000000
     7  C    0.000000   0.000000   0.000000   0.000000   0.000000   0.000000
     8  N    0.000000   0.000000   0.000000   0.000000   0.000000   0.000000
     9  N    0.000000   0.000000   0.000000   0.000000   0.000000   0.000000
    10  S    0.000000   0.000000   0.000000   0.000000   0.000000   0.000000
    11  O    0.000000   0.000000   0.000000   0.000000   0.000000   0.000000
    12  O    0.000000   0.000000   0.000000   0.000000   0.000000   0.000000
    13  C    0.000000   0.000000   0.000000   0.000000   0.000000   0.000000
    14  C    0.000000   0.000000   0.000000   0.000000   0.000000   0.000000
    15  C    0.000000   0.000000   0.000000   0.000000   0.000000   0.000000
    16  C    0.000000   0.000000   0.000000   0.000000   0.000000   0.000000
    17  O    0.000000   0.000000   0.000000   0.000000   0.000000   0.000000
    18  C    0.000000   0.000000   0.000000   0.000000   0.000000   0.000000
    19  O    6.504381   0.000000   0.000000   0.000000   0.000000   0.000000
    20  O    0.000000   6.259862   0.000000   0.000000   0.000000   0.000000
    21  C    0.000000   0.000000   3.918826   0.000000   0.000000   0.000000
    22  H    0.000000   0.000000   0.000000   0.974750   0.000000   0.000000
    23  H    0.000000   0.000000   0.000000   0.000000   0.967800   0.000000
    24  H    0.000000   0.000000   0.000000   0.000000   0.000000   0.965466
    25  H    0.000000   0.000000   0.000000   0.000000   0.000000   0.000000
    26  H    0.000000   0.000000   0.000000   0.000000   0.000000   0.000000
    27  H    0.000000   0.000000   0.000000   0.000000   0.000000   0.000000
    28  H    0.000000   0.000000   0.000000   0.000000   0.000000   0.000000
    29  H    0.000000   0.000000   0.000000   0.000000   0.000000   0.000000
    30  H    0.000000   0.000000   0.000000   0.000000   0.000000   0.000000
    31  H    0.000000   0.000000   0.000000   0.000000   0.000000   0.000000
    32  H    0.000000   0.000000   0.000000   0.000000   0.000000   0.000000
    33  H    0.000000   0.000000   0.000000   0.000000   0.000000   0.000000
              25         26         27         28         29         30
     1  C    0.000000   0.000000   0.000000   0.000000   0.000000   0.000000
     2  S    0.000000   0.000000   0.000000   0.000000   0.000000   0.000000
     3  C    0.000000   0.000000   0.000000   0.000000   0.000000   0.000000
     4  C    0.000000   0.000000   0.000000   0.000000   0.000000   0.000000
     5  C    0.000000   0.000000   0.000000   0.000000   0.000000   0.000000
     6  C    0.000000   0.000000   0.000000   0.000000   0.000000   0.000000
     7  C    0.000000   0.000000   0.000000   0.000000   0.000000   0.000000
     8  N    0.000000   0.000000   0.000000   0.000000   0.000000   0.000000
     9  N    0.000000   0.000000   0.000000   0.000000   0.000000   0.000000
    10  S    0.000000   0.000000   0.000000   0.000000   0.000000   0.000000
    11  O    0.000000   0.000000   0.000000   0.000000   0.000000   0.000000
    12  O    0.000000   0.000000   0.000000   0.000000   0.000000   0.000000
    13  C    0.000000   0.000000   0.000000   0.000000   0.000000   0.000000
    14  C    0.000000   0.000000   0.000000   0.000000   0.000000   0.000000
    15  C    0.000000   0.000000   0.000000   0.000000   0.000000   0.000000
    16  C    0.000000   0.000000   0.000000   0.000000   0.000000   0.000000
    17  O    0.000000   0.000000   0.000000   0.000000   0.000000   0.000000
    18  C    0.000000   0.000000   0.000000   0.000000   0.000000   0.000000
    19  O    0.000000   0.000000   0.000000   0.000000   0.000000   0.000000
    20  O    0.000000   0.000000   0.000000   0.000000   0.000000   0.000000
    21  C    0.000000   0.000000   0.000000   0.000000   0.000000   0.000000
    22  H    0.000000   0.000000   0.000000   0.000000   0.000000   0.000000
    23  H    0.000000   0.000000   0.000000   0.000000   0.000000   0.000000
    24  H    0.000000   0.000000   0.000000   0.000000   0.000000   0.000000
    25  H    0.957450   0.000000   0.000000   0.000000   0.000000   0.000000
    26  H    0.000000   0.939110   0.000000   0.000000   0.000000   0.000000
    27  H    0.000000   0.000000   0.951578   0.000000   0.000000   0.000000
    28  H    0.000000   0.000000   0.000000   0.814130   0.000000   0.000000
    29  H    0.000000   0.000000   0.000000   0.000000   0.922868   0.000000
    30  H    0.000000   0.000000   0.000000   0.000000   0.000000   0.923784
    31  H    0.000000   0.000000   0.000000   0.000000   0.000000   0.000000
    32  H    0.000000   0.000000   0.000000   0.000000   0.000000   0.000000
    33  H    0.000000   0.000000   0.000000   0.000000   0.000000   0.000000
              31         32         33
     1  C    0.000000   0.000000   0.000000
     2  S    0.000000   0.000000   0.000000
     3  C    0.000000   0.000000   0.000000
     4  C    0.000000   0.000000   0.000000
     5  C    0.000000   0.000000   0.000000
     6  C    0.000000   0.000000   0.000000
     7  C    0.000000   0.000000   0.000000
     8  N    0.000000   0.000000   0.000000
     9  N    0.000000   0.000000   0.000000
    10  S    0.000000   0.000000   0.000000
    11  O    0.000000   0.000000   0.000000
    12  O    0.000000   0.000000   0.000000
    13  C    0.000000   0.000000   0.000000
    14  C    0.000000   0.000000   0.000000
    15  C    0.000000   0.000000   0.000000
    16  C    0.000000   0.000000   0.000000
    17  O    0.000000   0.000000   0.000000
    18  C    0.000000   0.000000   0.000000
    19  O    0.000000   0.000000   0.000000
    20  O    0.000000   0.000000   0.000000
    21  C    0.000000   0.000000   0.000000
    22  H    0.000000   0.000000   0.000000
    23  H    0.000000   0.000000   0.000000
    24  H    0.000000   0.000000   0.000000
    25  H    0.000000   0.000000   0.000000
    26  H    0.000000   0.000000   0.000000
    27  H    0.000000   0.000000   0.000000
    28  H    0.000000   0.000000   0.000000
    29  H    0.000000   0.000000   0.000000
    30  H    0.000000   0.000000   0.000000
    31  H    0.970182   0.000000   0.000000
    32  H    0.000000   0.952607   0.000000
    33  H    0.000000   0.000000   0.954225
 Mulliken charges:
               1
     1  C   -0.016413
     2  S   -0.074544
     3  C    0.172042
     4  C   -0.038139
     5  C    0.017198
     6  C    0.068972
     7  C    0.089408
     8  N   -0.360729
     9  N   -0.256668
    10  S    1.320914
    11  O   -0.763441
    12  O   -0.749264
    13  C    0.153295
    14  C    0.002478
    15  C    0.001324
    16  C    0.115188
    17  O   -0.189943
    18  C    0.485340
    19  O   -0.504381
    20  O   -0.259862
    21  C    0.081174
    22  H    0.025250
    23  H    0.032200
    24  H    0.034534
    25  H    0.042550
    26  H    0.060890
    27  H    0.048422
    28  H    0.185870
    29  H    0.077132
    30  H    0.076216
    31  H    0.029818
    32  H    0.047393
    33  H    0.045775
 Sum of Mulliken charges =   0.00000
 Mulliken charges with hydrogens summed into heavy atoms:
               1
     1  C    0.075572
     2  S   -0.074544
     3  C    0.172042
     4  C    0.004411
     5  C    0.078088
     6  C    0.068972
     7  C    0.137830
     8  N   -0.360729
     9  N   -0.070799
    10  S    1.320914
    11  O   -0.763441
    12  O   -0.749264
    13  C    0.153295
    14  C    0.079610
    15  C    0.077540
    16  C    0.115188
    17  O   -0.189943
    18  C    0.485340
    19  O   -0.504381
    20  O   -0.259862
    21  C    0.204160
 Charge=              0.0000 electrons
 Dipole moment (field-independent basis, Debye):
    X=              3.6774    Y=              3.0428    Z=             -0.0816  Tot=              4.7737
 N-N= 7.224504284441D+02 E-N= 0.000000000000D+00  KE=-1.699962101655D+03
 Orbital energies and kinetic energies (alpha):
                                 1                 2
   1         O                -1.878703        -17.506121
   2         O                -1.753090        -16.585437
   3         O                -1.708239        -16.551295
   4         O                -1.632614        -16.281569
   5         O                -1.495070        -15.972281
   6         O                -1.455494        -16.119265
   7         O                -1.427550        -15.924782
   8         O                -1.304082        -15.994071
   9         O                -1.291834        -15.285576
  10         O                -1.268675        -14.646850
  11         O                -1.221406        -16.092774
  12         O                -1.132642        -14.880770
  13         O                -1.108910        -15.401770
  14         O                -1.023086        -15.660663
  15         O                -0.980582        -15.624804
  16         O                -0.972712        -15.493688
  17         O                -0.936891        -15.458999
  18         O                -0.878040        -15.170755
  19         O                -0.855899        -15.300210
  20         O                -0.826394        -15.475034
  21         O                -0.806477        -15.450560
  22         O                -0.770900        -14.818300
  23         O                -0.740658        -15.890004
  24         O                -0.701383        -14.744190
  25         O                -0.682045        -14.798203
  26         O                -0.674681        -14.700330
  27         O                -0.663046        -14.932949
  28         O                -0.640254        -15.626842
  29         O                -0.618362        -15.401050
  30         O                -0.614277        -12.459760
  31         O                -0.608495        -14.268897
  32         O                -0.603619        -14.742639
  33         O                -0.599337        -14.149698
  34         O                -0.586585        -14.488379
  35         O                -0.574978        -15.035872
  36         O                -0.562281        -15.844538
  37         O                -0.541822        -14.593445
  38         O                -0.533783        -15.242312
  39         O                -0.527270        -14.902355
  40         O                -0.523719        -15.055676
  41         O                -0.512120        -14.238904
  42         O                -0.509314        -15.274428
  43         O                -0.470192        -13.855526
  44         O                -0.461883        -15.234387
  45         O                -0.440468        -15.454837
  46         O                -0.429669        -15.396824
  47         O                -0.408568        -14.659406
  48         O                -0.398198        -14.015515
  49         O                -0.393099        -14.631860
  50         O                -0.391264        -14.617305
  51         O                -0.381516        -14.558601
  52         O                -0.375573        -15.070291
  53         O                -0.368741        -15.226492
  54         O                -0.363761        -14.838245
  55         O                -0.350741        -15.290081
  56         O                -0.312663        -15.045639
  57         V                -0.051882        -15.250578
  58         V                -0.022112        -15.226570
  59         V                -0.003046        -15.205552
  60         V                 0.007524        -14.783965
  61         V                 0.010476        -15.126973
  62         V                 0.040170        -15.080267
  63         V                 0.048578        -14.943647
  64         V                 0.060831        -14.808463
  65         V                 0.083724        -14.416334
  66         V                 0.091065        -15.089791
  67         V                 0.102906        -14.694302
  68         V                 0.115898        -13.517047
  69         V                 0.117786        -12.817180
  70         V                 0.129584        -13.358387
  71         V                 0.136964        -14.398666
  72         V                 0.139837        -13.956546
  73         V                 0.169351        -14.377264
  74         V                 0.183517        -14.395533
  75         V                 0.199807        -14.719198
  76         V                 0.214677        -14.646407
  77         V                 0.239399        -12.301499
  78         V                 0.241710        -12.961307
  79         V                 0.242808        -12.829607
  80         V                 0.249365        -11.382825
  81         V                 0.250498        -14.289827
  82         V                 0.253295        -11.277277
  83         V                 0.265474        -15.041514
  84         V                 0.289020        -13.978725
  85         V                 0.290847        -14.264417
  86         V                 0.311145        -14.632322
  87         V                 0.314412        -14.478070
  88         V                 0.326236        -14.074902
  89         V                 0.362786        -14.636819
  90         V                 0.369720        -14.700891
  91         V                 0.381182        -15.078704
  92         V                 0.403628        -14.792233
  93         V                 0.443521        -14.704792
  94         V                 0.451210        -14.908943
  95         V                 0.471296        -14.608617
  96         V                 0.493367        -14.465141
 Total kinetic energy from orbitals=-1.699962101655D+03

 Test job not archived.
 1\1\GINC-NODE026\SP\RZINDO CIS\STO-3G\C12H12N2O5S2\SGOOMAR1\12-Aug-202
 5\0\\#n ZINDO sp IOP(5/33=2) PUNCH=(MO,Coord) pop=full nosymm\\title\\
 0,1\C,0,9.98796,3.75324,6.27756\S,0,8.38672,3.36381,7.04257\C,0,7.1878
 ,3.82056,5.82434\C,0,5.82082,3.70736,6.11634\C,0,4.90065,4.09258,5.149
 63\C,0,5.36403,4.59563,3.92198\C,0,6.76289,4.64246,3.70583\N,0,7.64426
 ,4.26374,4.64058\N,0,4.49523,5.04477,2.92001\S,0,3.00142,5.87391,3.252
 37\O,0,2.6993,6.54385,2.01578\O,0,2.08779,4.97481,3.88915\C,0,3.51473,
 7.0798,4.41224\C,0,3.50652,8.45122,4.40381\C,0,4.11937,8.86471,5.6348\
 C,0,4.4565,7.7101,6.29872\O,0,4.08835,6.59637,5.57024\C,0,5.12998,7.47
 981,7.57432\O,0,5.54556,8.34175,8.30698\O,0,5.23831,6.15699,7.84139\C,
 0,5.91751,5.83884,9.05718\H,0,10.7847,3.4315,6.95664\H,0,10.09471,4.82
 794,6.0842\H,0,10.11377,3.2399,5.31455\H,0,5.47137,3.3335,7.0781\H,0,3
 .83119,3.98402,5.35392\H,0,7.18798,4.99405,2.76094\H,0,4.87298,5.11218
 ,1.97846\H,0,3.13077,9.10988,3.64064\H,0,4.2805,9.87583,5.95763\H,0,5.
 85485,4.74443,9.08874\H,0,5.40709,6.2956,9.91146\H,0,6.95879,6.17692,9
 .00353\\Version=ES64L-G16RevA.03\HF=-171.8242732\RMSD=4.904e-09\PG=C01
  [X(C12H12N2O5S2)]\\@


 THE MORE POWERFUL THE METHOD, THE MORE CATASTROPHIC THE ERRORS.
     -- M.D. KAMEN
 Job cpu time:       0 days  0 hours  0 minutes 41.3 seconds.
 Elapsed time:       0 days  0 hours  0 minutes 14.9 seconds.
 File lengths (MBytes):  RWF=    120 Int=      0 D2E=      0 Chk=      3 Scr=      1
 Normal termination of Gaussian 16 at Tue Aug 12 16:08:13 2025.
