title                                                                   
SP        RZINDO CIS                                                  STO-3G              
Number of atoms                            I               36
Info1-9                                    I   N=           9
          44          44           0           0           0         111
           1         108         590
Full Title                                 C   N=           1
title       
Route                                      C   N=           5
#n ZINDO sp IOP(5/33=2) PUNCH=(MO,Coord) pop=full nosymm    
Charge                                     I                0
Multiplicity                               I                1
Number of electrons                        I              122
Number of alpha electrons                  I               61
Number of beta electrons                   I               61
Number of basis functions                  I              111
Number of independent functions            I              111
Number of point charges in /Mol/           I                0
Number of translation vectors              I                0
Atomic numbers                             I   N=          36
           9           6           6           6           6           6
           6           6           7           8           6           6
           6           6           6           6           8           6
           8           6           6           6           6           7
           6           1           1           1           1           1
           1           1           1           1           1           1
Nuclear charges                            R   N=          36
  7.00000000E+00  4.00000000E+00  4.00000000E+00  4.00000000E+00  4.00000000E+00
  4.00000000E+00  4.00000000E+00  4.00000000E+00  5.00000000E+00  6.00000000E+00
  4.00000000E+00  4.00000000E+00  4.00000000E+00  4.00000000E+00  4.00000000E+00
  4.00000000E+00  6.00000000E+00  4.00000000E+00  6.00000000E+00  4.00000000E+00
  4.00000000E+00  4.00000000E+00  4.00000000E+00  5.00000000E+00  4.00000000E+00
  1.00000000E+00  1.00000000E+00  1.00000000E+00  1.00000000E+00  1.00000000E+00
  1.00000000E+00  1.00000000E+00  1.00000000E+00  1.00000000E+00  1.00000000E+00
  1.00000000E+00
Current cartesian coordinates              R   N=         108
  3.73914439E+00  3.59822751E-01  1.35905323E+00  1.26779836E+00  2.22874299E-01
  9.93258948E-01  3.75979910E-01 -3.82669540E-02 -1.47387299E+00 -2.22335727E+00
 -1.70812344E-01 -1.84019640E+00 -3.86596391E+00 -3.64339197E-02  2.28486786E-01
 -2.91635764E+00  2.01747161E-01  2.68545200E+00 -3.22066023E-01  3.41643586E-01
  3.09134628E+00 -6.57964842E+00 -1.48589165E-01 -1.88178927E-01 -8.17453948E+00
 -1.47179429E+00  1.21726708E+00 -1.06196561E+01 -1.19141563E+00  3.27489537E-01
 -1.05218817E+01  3.96672411E-01 -1.73771656E+00 -7.98832586E+00  1.14772516E+00
 -2.17465903E+00 -7.42237179E+00  2.79666238E+00 -4.14386703E+00 -9.39345062E+00
  3.64322189E+00 -5.65385269E+00 -1.18749445E+01  2.82410121E+00 -5.16702145E+00
 -1.25369722E+01  1.18648344E+00 -3.21242103E+00 -1.39010143E+01  3.77032487E+00
 -6.48722192E+00 -1.38203986E+01  3.88385962E+00 -9.08117338E+00 -1.20558480E+01
  3.11927643E+00 -1.02814707E+01 -1.61638480E+01  5.00167041E+00 -1.00462565E+01
 -1.79988854E+01  6.09818400E+00 -8.49813618E+00 -2.01560645E+01  7.11179530E+00
 -9.61371710E+00 -2.04033919E+01  6.99315829E+00 -1.22475796E+01 -1.86360633E+01
  5.93850214E+00 -1.37488347E+01 -1.65546245E+01  4.96026652E+00 -1.26787395E+01
  1.67053679E+00 -1.42919987E-01 -3.06938766E+00 -2.98346181E+00 -4.02549459E-01
 -3.74375532E+00 -4.22138360E+00  2.70646576E-01  4.28484060E+00  4.35166132E-01
  5.32052390E-01  4.99486740E+00 -5.48636627E+00  3.41407370E+00 -4.47987924E+00
 -9.03016967E+00  4.92933170E+00 -7.21950969E+00 -1.44692739E+01  5.91446482E-01
 -2.88170006E+00 -1.77583989E+01  6.16914321E+00 -6.44617706E+00 -2.16239282E+01
  7.97953864E+00 -8.46867535E+00 -2.20641777E+01  7.76135086E+00 -1.32257396E+01
 -1.51566429E+01  4.11759984E+00 -1.39713311E+01
Number of symbols in /Mol/                 I                0
Force Field                                I                0
Atom Types                                 C   N=          36
                                                            
                                                            
                                                            
                                                            
                                                            
                                                            
                                                            
            
Int Atom Types                             I   N=          36
           0           0           0           0           0           0
           0           0           0           0           0           0
           0           0           0           0           0           0
           0           0           0           0           0           0
           0           0           0           0           0           0
           0           0           0           0           0           0
MM charges                                 R   N=          36
  0.00000000E+00  0.00000000E+00  0.00000000E+00  0.00000000E+00  0.00000000E+00
  0.00000000E+00  0.00000000E+00  0.00000000E+00  0.00000000E+00  0.00000000E+00
  0.00000000E+00  0.00000000E+00  0.00000000E+00  0.00000000E+00  0.00000000E+00
  0.00000000E+00  0.00000000E+00  0.00000000E+00  0.00000000E+00  0.00000000E+00
  0.00000000E+00  0.00000000E+00  0.00000000E+00  0.00000000E+00  0.00000000E+00
  0.00000000E+00  0.00000000E+00  0.00000000E+00  0.00000000E+00  0.00000000E+00
  0.00000000E+00  0.00000000E+00  0.00000000E+00  0.00000000E+00  0.00000000E+00
  0.00000000E+00
Integer atomic weights                     I   N=          36
          19          12          12          12          12          12
          12          12          14          16          12          12
          12          12          12          12          16          12
          16          12          12          12          12          14
          12           1           1           1           1           1
           1           1           1           1           1           1
Real atomic weights                        R   N=          36
  1.89984032E+01  1.20000000E+01  1.20000000E+01  1.20000000E+01  1.20000000E+01
  1.20000000E+01  1.20000000E+01  1.20000000E+01  1.40030740E+01  1.59949146E+01
  1.20000000E+01  1.20000000E+01  1.20000000E+01  1.20000000E+01  1.20000000E+01
  1.20000000E+01  1.59949146E+01  1.20000000E+01  1.59949146E+01  1.20000000E+01
  1.20000000E+01  1.20000000E+01  1.20000000E+01  1.40030740E+01  1.20000000E+01
  1.00782504E+00  1.00782504E+00  1.00782504E+00  1.00782504E+00  1.00782504E+00
  1.00782504E+00  1.00782504E+00  1.00782504E+00  1.00782504E+00  1.00782504E+00
  1.00782504E+00
Atom fragment info                         I   N=          36
           0           0           0           0           0           0
           0           0           0           0           0           0
           0           0           0           0           0           0
           0           0           0           0           0           0
           0           0           0           0           0           0
           0           0           0           0           0           0
Atom residue num                           I   N=          36
           0           0           0           0           0           0
           0           0           0           0           0           0
           0           0           0           0           0           0
           0           0           0           0           0           0
           0           0           0           0           0           0
           0           0           0           0           0           0
Nuclear spins                              I   N=          36
           1           0           0           0           0           0
           0           0           2           0           0           0
           0           0           0           0           0           0
           0           0           0           0           0           2
           0           1           1           1           1           1
           1           1           1           1           1           1
Nuclear ZEff                               R   N=          36
 -7.20000000E+00 -3.90000000E+00 -3.90000000E+00 -3.90000000E+00 -3.90000000E+00
 -3.90000000E+00 -3.90000000E+00 -3.90000000E+00 -4.90000000E+00 -6.00000000E+00
 -3.90000000E+00 -3.90000000E+00 -3.90000000E+00 -3.90000000E+00 -3.90000000E+00
 -3.90000000E+00 -6.00000000E+00 -3.90000000E+00 -6.00000000E+00 -3.90000000E+00
 -3.90000000E+00 -3.90000000E+00 -3.90000000E+00 -4.90000000E+00 -3.90000000E+00
 -1.00000000E+00 -1.00000000E+00 -1.00000000E+00 -1.00000000E+00 -1.00000000E+00
 -1.00000000E+00 -1.00000000E+00 -1.00000000E+00 -1.00000000E+00 -1.00000000E+00
 -1.00000000E+00
Nuclear ZNuc                               R   N=          36
  9.00000000E+00  6.00000000E+00  6.00000000E+00  6.00000000E+00  6.00000000E+00
  6.00000000E+00  6.00000000E+00  6.00000000E+00  7.00000000E+00  8.00000000E+00
  6.00000000E+00  6.00000000E+00  6.00000000E+00  6.00000000E+00  6.00000000E+00
  6.00000000E+00  8.00000000E+00  6.00000000E+00  8.00000000E+00  6.00000000E+00
  6.00000000E+00  6.00000000E+00  6.00000000E+00  7.00000000E+00  6.00000000E+00
  1.00000000E+00  1.00000000E+00  1.00000000E+00  1.00000000E+00  1.00000000E+00
  1.00000000E+00  1.00000000E+00  1.00000000E+00  1.00000000E+00  1.00000000E+00
  1.00000000E+00
Nuclear QMom                               R   N=          36
  0.00000000E+00  0.00000000E+00  0.00000000E+00  0.00000000E+00  0.00000000E+00
  0.00000000E+00  0.00000000E+00  0.00000000E+00  2.04400000E+00  0.00000000E+00
  0.00000000E+00  0.00000000E+00  0.00000000E+00  0.00000000E+00  0.00000000E+00
  0.00000000E+00  0.00000000E+00  0.00000000E+00  0.00000000E+00  0.00000000E+00
  0.00000000E+00  0.00000000E+00  0.00000000E+00  2.04400000E+00  0.00000000E+00
  0.00000000E+00  0.00000000E+00  0.00000000E+00  0.00000000E+00  0.00000000E+00
  0.00000000E+00  0.00000000E+00  0.00000000E+00  0.00000000E+00  0.00000000E+00
  0.00000000E+00
Nuclear GFac                               R   N=          36
  2.62886700E+00  0.00000000E+00  0.00000000E+00  0.00000000E+00  0.00000000E+00
  0.00000000E+00  0.00000000E+00  0.00000000E+00  4.03761000E-01  0.00000000E+00
  0.00000000E+00  0.00000000E+00  0.00000000E+00  0.00000000E+00  0.00000000E+00
  0.00000000E+00  0.00000000E+00  0.00000000E+00  0.00000000E+00  0.00000000E+00
  0.00000000E+00  0.00000000E+00  0.00000000E+00  4.03761000E-01  0.00000000E+00
  2.79284600E+00  2.79284600E+00  2.79284600E+00  2.79284600E+00  2.79284600E+00
  2.79284600E+00  2.79284600E+00  2.79284600E+00  2.79284600E+00  2.79284600E+00
  2.79284600E+00
MicOpt                                     I   N=          36
          -1          -1          -1          -1          -1          -1
          -1          -1          -1          -1          -1          -1
          -1          -1          -1          -1          -1          -1
          -1          -1          -1          -1          -1          -1
          -1          -1          -1          -1          -1          -1
          -1          -1          -1          -1          -1          -1
Number of residues                         I                0
Number of secondary structures             I                0
Number of contracted shells                I               61
Number of primitive shells                 I              366
Pure/Cartesian d shells                    I                0
Pure/Cartesian f shells                    I                0
Highest angular momentum                   I                1
Largest degree of contraction              I                6
Shell types                                I   N=          61
           0           1           0           1           0           1
           0           1           0           1           0           1
           0           1           0           1           0           1
           0           1           0           1           0           1
           0           1           0           1           0           1
           0           1           0           1           0           1
           0           1           0           1           0           1
           0           1           0           1           0           1
           0           1           0           0           0           0
           0           0           0           0           0           0
           0
Number of primitives per shell             I   N=          61
           6           6           6           6           6           6
           6           6           6           6           6           6
           6           6           6           6           6           6
           6           6           6           6           6           6
           6           6           6           6           6           6
           6           6           6           6           6           6
           6           6           6           6           6           6
           6           6           6           6           6           6
           6           6           6           6           6           6
           6           6           6           6           6           6
           6
Shell to atom map                          I   N=          61
           1           1           2           2           3           3
           4           4           5           5           6           6
           7           7           8           8           9           9
          10          10          11          11          12          12
          13          13          14          14          15          15
          16          16          17          17          18          18
          19          19          20          20          21          21
          22          22          23          23          24          24
          25          25          26          27          28          29
          30          31          32          33          34          35
          36
Primitive exponents                        R   N=         366
  1.87150346E+02  3.43214706E+01  9.64507370E+00  1.37926695E+00  6.25996172E-01
  2.98534037E-01  3.96696128E+01  1.03450283E+01  3.70154970E+00  1.54731853E+00
  7.07539435E-01  3.34499681E-01  7.31056039E+01  1.34068245E+01  3.76760691E+00
  5.38776153E-01  2.44529755E-01  1.16614858E-01  1.54959425E+01  4.04102668E+00
  1.44591785E+00  6.04421300E-01  2.76382592E-01  1.30663938E-01  7.31056039E+01
  1.34068245E+01  3.76760691E+00  5.38776153E-01  2.44529755E-01  1.16614858E-01
  1.54959425E+01  4.04102668E+00  1.44591785E+00  6.04421300E-01  2.76382592E-01
  1.30663938E-01  7.31056039E+01  1.34068245E+01  3.76760691E+00  5.38776153E-01
  2.44529755E-01  1.16614858E-01  1.54959425E+01  4.04102668E+00  1.44591785E+00
  6.04421300E-01  2.76382592E-01  1.30663938E-01  7.31056039E+01  1.34068245E+01
  3.76760691E+00  5.38776153E-01  2.44529755E-01  1.16614858E-01  1.54959425E+01
  4.04102668E+00  1.44591785E+00  6.04421300E-01  2.76382592E-01  1.30663938E-01
  7.31056039E+01  1.34068245E+01  3.76760691E+00  5.38776153E-01  2.44529755E-01
  1.16614858E-01  1.54959425E+01  4.04102668E+00  1.44591785E+00  6.04421300E-01
  2.76382592E-01  1.30663938E-01  7.31056039E+01  1.34068245E+01  3.76760691E+00
  5.38776153E-01  2.44529755E-01  1.16614858E-01  1.54959425E+01  4.04102668E+00
  1.44591785E+00  6.04421300E-01  2.76382592E-01  1.30663938E-01  7.31056039E+01
  1.34068245E+01  3.76760691E+00  5.38776153E-01  2.44529755E-01  1.16614858E-01
  1.54959425E+01  4.04102668E+00  1.44591785E+00  6.04421300E-01  2.76382592E-01
  1.30663938E-01  1.05272070E+02  1.93058272E+01  5.42535396E+00  7.75837661E-01
  3.52122847E-01  1.67925396E-01  2.23141572E+01  5.81907842E+00  2.08212170E+00
  8.70366672E-01  3.97990932E-01  1.88156070E-01  1.43286984E+02  2.62773760E+01
  7.38450955E+00  1.05600126E+00  4.79278319E-01  2.28565122E-01  3.03720473E+01
  7.92041230E+00  2.83399899E+00  1.18466575E+00  5.41709880E-01  2.56101318E-01
  7.31056039E+01  1.34068245E+01  3.76760691E+00  5.38776153E-01  2.44529755E-01
  1.16614858E-01  1.54959425E+01  4.04102668E+00  1.44591785E+00  6.04421300E-01
  2.76382592E-01  1.30663938E-01  7.31056039E+01  1.34068245E+01  3.76760691E+00
  5.38776153E-01  2.44529755E-01  1.16614858E-01  1.54959425E+01  4.04102668E+00
  1.44591785E+00  6.04421300E-01  2.76382592E-01  1.30663938E-01  7.31056039E+01
  1.34068245E+01  3.76760691E+00  5.38776153E-01  2.44529755E-01  1.16614858E-01
  1.54959425E+01  4.04102668E+00  1.44591785E+00  6.04421300E-01  2.76382592E-01
  1.30663938E-01  7.31056039E+01  1.34068245E+01  3.76760691E+00  5.38776153E-01
  2.44529755E-01  1.16614858E-01  1.54959425E+01  4.04102668E+00  1.44591785E+00
  6.04421300E-01  2.76382592E-01  1.30663938E-01  7.31056039E+01  1.34068245E+01
  3.76760691E+00  5.38776153E-01  2.44529755E-01  1.16614858E-01  1.54959425E+01
  4.04102668E+00  1.44591785E+00  6.04421300E-01  2.76382592E-01  1.30663938E-01
  7.31056039E+01  1.34068245E+01  3.76760691E+00  5.38776153E-01  2.44529755E-01
  1.16614858E-01  1.54959425E+01  4.04102668E+00  1.44591785E+00  6.04421300E-01
  2.76382592E-01  1.30663938E-01  1.43286984E+02  2.62773760E+01  7.38450955E+00
  1.05600126E+00  4.79278319E-01  2.28565122E-01  3.03720473E+01  7.92041230E+00
  2.83399899E+00  1.18466575E+00  5.41709880E-01  2.56101318E-01  7.31056039E+01
  1.34068245E+01  3.76760691E+00  5.38776153E-01  2.44529755E-01  1.16614858E-01
  1.54959425E+01  4.04102668E+00  1.44591785E+00  6.04421300E-01  2.76382592E-01
  1.30663938E-01  1.43286984E+02  2.62773760E+01  7.38450955E+00  1.05600126E+00
  4.79278319E-01  2.28565122E-01  3.03720473E+01  7.92041230E+00  2.83399899E+00
  1.18466575E+00  5.41709880E-01  2.56101318E-01  7.31056039E+01  1.34068245E+01
  3.76760691E+00  5.38776153E-01  2.44529755E-01  1.16614858E-01  1.54959425E+01
  4.04102668E+00  1.44591785E+00  6.04421300E-01  2.76382592E-01  1.30663938E-01
  7.31056039E+01  1.34068245E+01  3.76760691E+00  5.38776153E-01  2.44529755E-01
  1.16614858E-01  1.54959425E+01  4.04102668E+00  1.44591785E+00  6.04421300E-01
  2.76382592E-01  1.30663938E-01  7.31056039E+01  1.34068245E+01  3.76760691E+00
  5.38776153E-01  2.44529755E-01  1.16614858E-01  1.54959425E+01  4.04102668E+00
  1.44591785E+00  6.04421300E-01  2.76382592E-01  1.30663938E-01  7.31056039E+01
  1.34068245E+01  3.76760691E+00  5.38776153E-01  2.44529755E-01  1.16614858E-01
  1.54959425E+01  4.04102668E+00  1.44591785E+00  6.04421300E-01  2.76382592E-01
  1.30663938E-01  1.05272070E+02  1.93058272E+01  5.42535396E+00  7.75837661E-01
  3.52122847E-01  1.67925396E-01  2.23141572E+01  5.81907842E+00  2.08212170E+00
  8.70366672E-01  3.97990932E-01  1.88156070E-01  7.31056039E+01  1.34068245E+01
  3.76760691E+00  5.38776153E-01  2.44529755E-01  1.16614858E-01  1.54959425E+01
  4.04102668E+00  1.44591785E+00  6.04421300E-01  2.76382592E-01  1.30663938E-01
  3.32683653E+01  6.09971837E+00  1.70648139E+00  5.86222413E-01  2.27647318E-01
  9.37577369E-02  3.32683653E+01  6.09971837E+00  1.70648139E+00  5.86222413E-01
  2.27647318E-01  9.37577369E-02  3.32683653E+01  6.09971837E+00  1.70648139E+00
  5.86222413E-01  2.27647318E-01  9.37577369E-02  3.32683653E+01  6.09971837E+00
  1.70648139E+00  5.86222413E-01  2.27647318E-01  9.37577369E-02  3.32683653E+01
  6.09971837E+00  1.70648139E+00  5.86222413E-01  2.27647318E-01  9.37577369E-02
  3.32683653E+01  6.09971837E+00  1.70648139E+00  5.86222413E-01  2.27647318E-01
  9.37577369E-02  3.32683653E+01  6.09971837E+00  1.70648139E+00  5.86222413E-01
  2.27647318E-01  9.37577369E-02  3.32683653E+01  6.09971837E+00  1.70648139E+00
  5.86222413E-01  2.27647318E-01  9.37577369E-02  3.32683653E+01  6.09971837E+00
  1.70648139E+00  5.86222413E-01  2.27647318E-01  9.37577369E-02  3.32683653E+01
  6.09971837E+00  1.70648139E+00  5.86222413E-01  2.27647318E-01  9.37577369E-02
  3.32683653E+01  6.09971837E+00  1.70648139E+00  5.86222413E-01  2.27647318E-01
  9.37577369E-02
Contraction coefficients                   R   N=         366
 -4.15127782E-03 -2.06702415E-02 -5.15030334E-02  3.34627117E-01  5.62106130E-01
  1.71299470E-01  7.92423365E-03  5.14410483E-02  1.89840006E-01  4.04986319E-01
  4.01236286E-01  1.05185519E-01 -4.15127782E-03 -2.06702415E-02 -5.15030334E-02
  3.34627117E-01  5.62106130E-01  1.71299470E-01  7.92423365E-03  5.14410483E-02
  1.89840006E-01  4.04986319E-01  4.01236286E-01  1.05185519E-01 -4.15127782E-03
 -2.06702415E-02 -5.15030334E-02  3.34627117E-01  5.62106130E-01  1.71299470E-01
  7.92423365E-03  5.14410483E-02  1.89840006E-01  4.04986319E-01  4.01236286E-01
  1.05185519E-01 -4.15127782E-03 -2.06702415E-02 -5.15030334E-02  3.34627117E-01
  5.62106130E-01  1.71299470E-01  7.92423365E-03  5.14410483E-02  1.89840006E-01
  4.04986319E-01  4.01236286E-01  1.05185519E-01 -4.15127782E-03 -2.06702415E-02
 -5.15030334E-02  3.34627117E-01  5.62106130E-01  1.71299470E-01  7.92423365E-03
  5.14410483E-02  1.89840006E-01  4.04986319E-01  4.01236286E-01  1.05185519E-01
 -4.15127782E-03 -2.06702415E-02 -5.15030334E-02  3.34627117E-01  5.62106130E-01
  1.71299470E-01  7.92423365E-03  5.14410483E-02  1.89840006E-01  4.04986319E-01
  4.01236286E-01  1.05185519E-01 -4.15127782E-03 -2.06702415E-02 -5.15030334E-02
  3.34627117E-01  5.62106130E-01  1.71299470E-01  7.92423365E-03  5.14410483E-02
  1.89840006E-01  4.04986319E-01  4.01236286E-01  1.05185519E-01 -4.15127782E-03
 -2.06702415E-02 -5.15030334E-02  3.34627117E-01  5.62106130E-01  1.71299470E-01
  7.92423365E-03  5.14410483E-02  1.89840006E-01  4.04986319E-01  4.01236286E-01
  1.05185519E-01 -4.15127782E-03 -2.06702415E-02 -5.15030334E-02  3.34627117E-01
  5.62106130E-01  1.71299470E-01  7.92423365E-03  5.14410483E-02  1.89840006E-01
  4.04986319E-01  4.01236286E-01  1.05185519E-01 -4.15127782E-03 -2.06702415E-02
 -5.15030334E-02  3.34627117E-01  5.62106130E-01  1.71299470E-01  7.92423365E-03
  5.14410483E-02  1.89840006E-01  4.04986319E-01  4.01236286E-01  1.05185519E-01
 -4.15127782E-03 -2.06702415E-02 -5.15030334E-02  3.34627117E-01  5.62106130E-01
  1.71299470E-01  7.92423365E-03  5.14410483E-02  1.89840006E-01  4.04986319E-01
  4.01236286E-01  1.05185519E-01 -4.15127782E-03 -2.06702415E-02 -5.15030334E-02
  3.34627117E-01  5.62106130E-01  1.71299470E-01  7.92423365E-03  5.14410483E-02
  1.89840006E-01  4.04986319E-01  4.01236286E-01  1.05185519E-01 -4.15127782E-03
 -2.06702415E-02 -5.15030334E-02  3.34627117E-01  5.62106130E-01  1.71299470E-01
  7.92423365E-03  5.14410483E-02  1.89840006E-01  4.04986319E-01  4.01236286E-01
  1.05185519E-01 -4.15127782E-03 -2.06702415E-02 -5.15030334E-02  3.34627117E-01
  5.62106130E-01  1.71299470E-01  7.92423365E-03  5.14410483E-02  1.89840006E-01
  4.04986319E-01  4.01236286E-01  1.05185519E-01 -4.15127782E-03 -2.06702415E-02
 -5.15030334E-02  3.34627117E-01  5.62106130E-01  1.71299470E-01  7.92423365E-03
  5.14410483E-02  1.89840006E-01  4.04986319E-01  4.01236286E-01  1.05185519E-01
 -4.15127782E-03 -2.06702415E-02 -5.15030334E-02  3.34627117E-01  5.62106130E-01
  1.71299470E-01  7.92423365E-03  5.14410483E-02  1.89840006E-01  4.04986319E-01
  4.01236286E-01  1.05185519E-01 -4.15127782E-03 -2.06702415E-02 -5.15030334E-02
  3.34627117E-01  5.62106130E-01  1.71299470E-01  7.92423365E-03  5.14410483E-02
  1.89840006E-01  4.04986319E-01  4.01236286E-01  1.05185519E-01 -4.15127782E-03
 -2.06702415E-02 -5.15030334E-02  3.34627117E-01  5.62106130E-01  1.71299470E-01
  7.92423365E-03  5.14410483E-02  1.89840006E-01  4.04986319E-01  4.01236286E-01
  1.05185519E-01 -4.15127782E-03 -2.06702415E-02 -5.15030334E-02  3.34627117E-01
  5.62106130E-01  1.71299470E-01  7.92423365E-03  5.14410483E-02  1.89840006E-01
  4.04986319E-01  4.01236286E-01  1.05185519E-01 -4.15127782E-03 -2.06702415E-02
 -5.15030334E-02  3.34627117E-01  5.62106130E-01  1.71299470E-01  7.92423365E-03
  5.14410483E-02  1.89840006E-01  4.04986319E-01  4.01236286E-01  1.05185519E-01
 -4.15127782E-03 -2.06702415E-02 -5.15030334E-02  3.34627117E-01  5.62106130E-01
  1.71299470E-01  7.92423365E-03  5.14410483E-02  1.89840006E-01  4.04986319E-01
  4.01236286E-01  1.05185519E-01 -4.15127782E-03 -2.06702415E-02 -5.15030334E-02
  3.34627117E-01  5.62106130E-01  1.71299470E-01  7.92423365E-03  5.14410483E-02
  1.89840006E-01  4.04986319E-01  4.01236286E-01  1.05185519E-01 -4.15127782E-03
 -2.06702415E-02 -5.15030334E-02  3.34627117E-01  5.62106130E-01  1.71299470E-01
  7.92423365E-03  5.14410483E-02  1.89840006E-01  4.04986319E-01  4.01236286E-01
  1.05185519E-01 -4.15127782E-03 -2.06702415E-02 -5.15030334E-02  3.34627117E-01
  5.62106130E-01  1.71299470E-01  7.92423365E-03  5.14410483E-02  1.89840006E-01
  4.04986319E-01  4.01236286E-01  1.05185519E-01 -4.15127782E-03 -2.06702415E-02
 -5.15030334E-02  3.34627117E-01  5.62106130E-01  1.71299470E-01  7.92423365E-03
  5.14410483E-02  1.89840006E-01  4.04986319E-01  4.01236286E-01  1.05185519E-01
  9.16359628E-03  4.93614929E-02  1.68538305E-01  3.70562800E-01  4.16491530E-01
  1.30334084E-01  9.16359628E-03  4.93614929E-02  1.68538305E-01  3.70562800E-01
  4.16491530E-01  1.30334084E-01  9.16359628E-03  4.93614929E-02  1.68538305E-01
  3.70562800E-01  4.16491530E-01  1.30334084E-01  9.16359628E-03  4.93614929E-02
  1.68538305E-01  3.70562800E-01  4.16491530E-01  1.30334084E-01  9.16359628E-03
  4.93614929E-02  1.68538305E-01  3.70562800E-01  4.16491530E-01  1.30334084E-01
  9.16359628E-03  4.93614929E-02  1.68538305E-01  3.70562800E-01  4.16491530E-01
  1.30334084E-01  9.16359628E-03  4.93614929E-02  1.68538305E-01  3.70562800E-01
  4.16491530E-01  1.30334084E-01  9.16359628E-03  4.93614929E-02  1.68538305E-01
  3.70562800E-01  4.16491530E-01  1.30334084E-01  9.16359628E-03  4.93614929E-02
  1.68538305E-01  3.70562800E-01  4.16491530E-01  1.30334084E-01  9.16359628E-03
  4.93614929E-02  1.68538305E-01  3.70562800E-01  4.16491530E-01  1.30334084E-01
  9.16359628E-03  4.93614929E-02  1.68538305E-01  3.70562800E-01  4.16491530E-01
  1.30334084E-01
Coordinates of each shell                  R   N=         183
  3.73914439E+00  3.59822751E-01  1.35905323E+00  3.73914439E+00  3.59822751E-01
  1.35905323E+00  1.26779836E+00  2.22874299E-01  9.93258948E-01  1.26779836E+00
  2.22874299E-01  9.93258948E-01  3.75979910E-01 -3.82669540E-02 -1.47387299E+00
  3.75979910E-01 -3.82669540E-02 -1.47387299E+00 -2.22335727E+00 -1.70812344E-01
 -1.84019640E+00 -2.22335727E+00 -1.70812344E-01 -1.84019640E+00 -3.86596391E+00
 -3.64339197E-02  2.28486786E-01 -3.86596391E+00 -3.64339197E-02  2.28486786E-01
 -2.91635764E+00  2.01747161E-01  2.68545200E+00 -2.91635764E+00  2.01747161E-01
  2.68545200E+00 -3.22066023E-01  3.41643586E-01  3.09134628E+00 -3.22066023E-01
  3.41643586E-01  3.09134628E+00 -6.57964842E+00 -1.48589165E-01 -1.88178927E-01
 -6.57964842E+00 -1.48589165E-01 -1.88178927E-01 -8.17453948E+00 -1.47179429E+00
  1.21726708E+00 -8.17453948E+00 -1.47179429E+00  1.21726708E+00 -1.06196561E+01
 -1.19141563E+00  3.27489537E-01 -1.06196561E+01 -1.19141563E+00  3.27489537E-01
 -1.05218817E+01  3.96672411E-01 -1.73771656E+00 -1.05218817E+01  3.96672411E-01
 -1.73771656E+00 -7.98832586E+00  1.14772516E+00 -2.17465903E+00 -7.98832586E+00
  1.14772516E+00 -2.17465903E+00 -7.42237179E+00  2.79666238E+00 -4.14386703E+00
 -7.42237179E+00  2.79666238E+00 -4.14386703E+00 -9.39345062E+00  3.64322189E+00
 -5.65385269E+00 -9.39345062E+00  3.64322189E+00 -5.65385269E+00 -1.18749445E+01
  2.82410121E+00 -5.16702145E+00 -1.18749445E+01  2.82410121E+00 -5.16702145E+00
 -1.25369722E+01  1.18648344E+00 -3.21242103E+00 -1.25369722E+01  1.18648344E+00
 -3.21242103E+00 -1.39010143E+01  3.77032487E+00 -6.48722192E+00 -1.39010143E+01
  3.77032487E+00 -6.48722192E+00 -1.38203986E+01  3.88385962E+00 -9.08117338E+00
 -1.38203986E+01  3.88385962E+00 -9.08117338E+00 -1.20558480E+01  3.11927643E+00
 -1.02814707E+01 -1.20558480E+01  3.11927643E+00 -1.02814707E+01 -1.61638480E+01
  5.00167041E+00 -1.00462565E+01 -1.61638480E+01  5.00167041E+00 -1.00462565E+01
 -1.79988854E+01  6.09818400E+00 -8.49813618E+00 -1.79988854E+01  6.09818400E+00
 -8.49813618E+00 -2.01560645E+01  7.11179530E+00 -9.61371710E+00 -2.01560645E+01
  7.11179530E+00 -9.61371710E+00 -2.04033919E+01  6.99315829E+00 -1.22475796E+01
 -2.04033919E+01  6.99315829E+00 -1.22475796E+01 -1.86360633E+01  5.93850214E+00
 -1.37488347E+01 -1.86360633E+01  5.93850214E+00 -1.37488347E+01 -1.65546245E+01
  4.96026652E+00 -1.26787395E+01 -1.65546245E+01  4.96026652E+00 -1.26787395E+01
  1.67053679E+00 -1.42919987E-01 -3.06938766E+00 -2.98346181E+00 -4.02549459E-01
 -3.74375532E+00 -4.22138360E+00  2.70646576E-01  4.28484060E+00  4.35166132E-01
  5.32052390E-01  4.99486740E+00 -5.48636627E+00  3.41407370E+00 -4.47987924E+00
 -9.03016967E+00  4.92933170E+00 -7.21950969E+00 -1.44692739E+01  5.91446482E-01
 -2.88170006E+00 -1.77583989E+01  6.16914321E+00 -6.44617706E+00 -2.16239282E+01
  7.97953864E+00 -8.46867535E+00 -2.20641777E+01  7.76135086E+00 -1.32257396E+01
 -1.51566429E+01  4.11759984E+00 -1.39713311E+01
Num ILSW                                   I              100
ILSW                                       I   N=         100
           0           0           0           0           2           0
           0           0           0           0           0          -1
           5           0           0           0           0           0
           0           0           1           0           0           0