 Entering Gaussian System, Link 0=g16
 Initial command:
 /opt/apps/pkg/applications/licensed/gaussian/v16/x86_64AVX2/g16/l1.exe "/tmp/258824/465/3726_ZINC000032104853_04/Gau-2103246.inp" -scrdir="/tmp/258824/465/3726_ZINC000032104853_04/"
 Entering Link 1 = /opt/apps/pkg/applications/licensed/gaussian/v16/x86_64AVX2/g16/l1.exe PID=   2103302.
  
 Copyright (c) 1988,1990,1992,1993,1995,1998,2003,2009,2016,
            Gaussian, Inc.  All Rights Reserved.
  
 This is part of the Gaussian(R) 16 program.  It is based on
 the Gaussian(R) 09 system (copyright 2009, Gaussian, Inc.),
 the Gaussian(R) 03 system (copyright 2003, Gaussian, Inc.),
 the Gaussian(R) 98 system (copyright 1998, Gaussian, Inc.),
 the Gaussian(R) 94 system (copyright 1995, Gaussian, Inc.),
 the Gaussian 92(TM) system (copyright 1992, Gaussian, Inc.),
 the Gaussian 90(TM) system (copyright 1990, Gaussian, Inc.),
 the Gaussian 88(TM) system (copyright 1988, Gaussian, Inc.),
 the Gaussian 86(TM) system (copyright 1986, Carnegie Mellon
 University), and the Gaussian 82(TM) system (copyright 1983,
 Carnegie Mellon University). Gaussian is a federally registered
 trademark of Gaussian, Inc.
  
 This software contains proprietary and confidential information,
 including trade secrets, belonging to Gaussian, Inc.
  
 This software is provided under written license and may be
 used, copied, transmitted, or stored only in accord with that
 written license.
  
 The following legend is applicable only to US Government
 contracts under FAR:
  
                    RESTRICTED RIGHTS LEGEND
  
 Use, reproduction and disclosure by the US Government is
 subject to restrictions as set forth in subparagraphs (a)
 and (c) of the Commercial Computer Software - Restricted
 Rights clause in FAR 52.227-19.
  
 Gaussian, Inc.
 340 Quinnipiac St., Bldg. 40, Wallingford CT 06492
  
  
 ---------------------------------------------------------------
 Warning -- This program may not be used in any manner that
 competes with the business of Gaussian, Inc. or will provide
 assistance to any competitor of Gaussian, Inc.  The licensee
 of this program is prohibited from giving any competitor of
 Gaussian, Inc. access to this program.  By using this program,
 the user acknowledges that Gaussian, Inc. is engaged in the
 business of creating and licensing software in the field of
 computational chemistry and represents and warrants to the
 licensee that it is not a competitor of Gaussian, Inc. and that
 it will not use this program in any manner prohibited above.
 ---------------------------------------------------------------
  

 Cite this work as:
 Gaussian 16, Revision A.03,
 M. J. Frisch, G. W. Trucks, H. B. Schlegel, G. E. Scuseria, 
 M. A. Robb, J. R. Cheeseman, G. Scalmani, V. Barone, 
 G. A. Petersson, H. Nakatsuji, X. Li, M. Caricato, A. V. Marenich, 
 J. Bloino, B. G. Janesko, R. Gomperts, B. Mennucci, H. P. Hratchian, 
 J. V. Ortiz, A. F. Izmaylov, J. L. Sonnenberg, D. Williams-Young, 
 F. Ding, F. Lipparini, F. Egidi, J. Goings, B. Peng, A. Petrone, 
 T. Henderson, D. Ranasinghe, V. G. Zakrzewski, J. Gao, N. Rega, 
 G. Zheng, W. Liang, M. Hada, M. Ehara, K. Toyota, R. Fukuda, 
 J. Hasegawa, M. Ishida, T. Nakajima, Y. Honda, O. Kitao, H. Nakai, 
 T. Vreven, K. Throssell, J. A. Montgomery, Jr., J. E. Peralta, 
 F. Ogliaro, M. J. Bearpark, J. J. Heyd, E. N. Brothers, K. N. Kudin, 
 V. N. Staroverov, T. A. Keith, R. Kobayashi, J. Normand, 
 K. Raghavachari, A. P. Rendell, J. C. Burant, S. S. Iyengar, 
 J. Tomasi, M. Cossi, J. M. Millam, M. Klene, C. Adamo, R. Cammi, 
 J. W. Ochterski, R. L. Martin, K. Morokuma, O. Farkas, 
 J. B. Foresman, and D. J. Fox, Gaussian, Inc., Wallingford CT, 2016.
 
 ******************************************
 Gaussian 16:  ES64L-G16RevA.03 25-Dec-2016
                12-Aug-2025 
 ******************************************
 %nproc=4
 Will use up to    4 processors via shared memory.
 %chk=ZINC000032104853_04.chk
 --------------------------------------------------------
 #n ZINDO sp IOP(5/33=2) PUNCH=(MO,Coord) pop=full nosymm
 --------------------------------------------------------
 1/38=1,172=1/1;
 2/12=2,15=1,17=6,18=5,40=1/2;
 3/5=2,25=1,41=400000/1,2,3,8;
 4/5=3,35=1/1;
 5/5=2,33=2,35=1,38=5/2;
 8/6=1/1;
 9/42=1,49=10/14;
 6/7=3/1;
 99/5=1,9=1,10=34/99;
 -----
 title
 -----
 Symbolic Z-matrix:
 Charge =  0 Multiplicity = 1
 F                     1.97867   0.19041   0.71918 
 C                     0.67089   0.11794   0.52561 
 C                     0.19896  -0.02025  -0.77994 
 C                    -1.17655  -0.09039  -0.97379 
 C                    -2.04578  -0.01928   0.12091 
 C                    -1.54327   0.10676   1.42108 
 C                    -0.17043   0.18079   1.63587 
 C                    -3.4818   -0.07863  -0.09958 
 N                    -4.32578  -0.77884   0.64415 
 O                    -5.61968  -0.63047   0.1733 
 C                    -5.56794   0.20991  -0.91956 
 C                    -4.22724   0.60735  -1.15078 
 C                    -3.92775   1.47993  -2.19284 
 C                    -4.9708    1.92791  -2.99189 
 C                    -6.28395   1.49445  -2.73427 
 C                    -6.63428   0.62786  -1.69994 
 O                    -7.3561    1.99517  -3.43289 
 C                    -7.31344   2.05525  -4.80555 
 O                    -6.37968   1.65065  -5.44072 
 C                    -8.55354   2.64677  -5.31625 
 C                    -9.5246    3.22702  -4.49702 
 C                    -10.66613   3.7634   -5.08736 
 C                    -10.79701   3.70062  -6.48114 
 N                    -9.86178   3.14252  -7.27557 
 C                    -8.76033   2.62486  -6.7093 
 H                     0.88401  -0.07563  -1.62425 
 H                    -1.57878  -0.21302  -1.98111 
 H                    -2.23386   0.14322   2.26744 
 H                     0.23028   0.28155   2.64317 
 H                    -2.90326   1.80665  -2.37065 
 H                    -4.77856   2.60849  -3.8204 
 H                    -7.65681   0.31298  -1.52493 
 H                    -9.39734   3.26457  -3.41117 
 H                    -11.44289   4.22259  -4.48143 
 H                    -11.67586   4.10713  -6.99876 
 H                    -8.02055   2.17894  -7.39331 
 
                          Input orientation:                          
 ---------------------------------------------------------------------
 Center     Atomic      Atomic             Coordinates (Angstroms)
 Number     Number       Type             X           Y           Z
 ---------------------------------------------------------------------
      1          9           0        1.978670    0.190410    0.719180
      2          6           0        0.670890    0.117940    0.525610
      3          6           0        0.198960   -0.020250   -0.779940
      4          6           0       -1.176550   -0.090390   -0.973790
      5          6           0       -2.045780   -0.019280    0.120910
      6          6           0       -1.543270    0.106760    1.421080
      7          6           0       -0.170430    0.180790    1.635870
      8          6           0       -3.481800   -0.078630   -0.099580
      9          7           0       -4.325780   -0.778840    0.644150
     10          8           0       -5.619680   -0.630470    0.173300
     11          6           0       -5.567940    0.209910   -0.919560
     12          6           0       -4.227240    0.607350   -1.150780
     13          6           0       -3.927750    1.479930   -2.192840
     14          6           0       -4.970800    1.927910   -2.991890
     15          6           0       -6.283950    1.494450   -2.734270
     16          6           0       -6.634280    0.627860   -1.699940
     17          8           0       -7.356100    1.995170   -3.432890
     18          6           0       -7.313440    2.055250   -4.805550
     19          8           0       -6.379680    1.650650   -5.440720
     20          6           0       -8.553540    2.646770   -5.316250
     21          6           0       -9.524600    3.227020   -4.497020
     22          6           0      -10.666130    3.763400   -5.087360
     23          6           0      -10.797010    3.700620   -6.481140
     24          7           0       -9.861780    3.142520   -7.275570
     25          6           0       -8.760330    2.624860   -6.709300
     26          1           0        0.884010   -0.075630   -1.624250
     27          1           0       -1.578780   -0.213020   -1.981110
     28          1           0       -2.233860    0.143220    2.267440
     29          1           0        0.230280    0.281550    2.643170
     30          1           0       -2.903260    1.806650   -2.370650
     31          1           0       -4.778560    2.608490   -3.820400
     32          1           0       -7.656810    0.312980   -1.524930
     33          1           0       -9.397340    3.264570   -3.411170
     34          1           0      -11.442890    4.222590   -4.481430
     35          1           0      -11.675860    4.107130   -6.998760
     36          1           0       -8.020550    2.178940   -7.393310
 ---------------------------------------------------------------------
                    Distance matrix (angstroms):
                    1          2          3          4          5
     1  F    0.000000
     2  C    1.324013   0.000000
     3  C    2.336473   1.395090   0.000000
     4  C    3.591714   2.388438   1.390872   0.000000
     5  C    4.074076   2.750074   2.418758   1.399638   0.000000
     6  C    3.592175   2.388409   2.809980   2.430793   1.399587
     7  C    2.336460   1.394434   2.452143   2.810007   2.419105
     8  C    5.528063   4.204086   3.743567   2.465473   1.454060
     9  N    6.378963   5.077891   4.803828   3.606847   2.459494
    10  O    7.662033   6.344723   5.927698   4.620488   3.626163
    11  C    7.722511   6.404684   5.773180   4.401980   3.679771
    12  C    6.494914   5.200143   4.485828   3.134466   2.601659
    13  C    6.710329   5.512937   4.612652   3.394273   3.338095
    14  C    8.067594   6.890389   5.951006   4.747904   4.694339
    15  C    9.049736   7.803294   6.938432   5.629968   5.329683
    16  C    8.956920   7.653666   6.925288   5.552476   4.978817
    17  O   10.374718   9.144741   8.257057   6.970192   6.699776
    18  C   10.970122   9.794078   8.772080   7.546362   7.504793
    19  O   10.485165   9.362523   8.233668   7.075115   7.245901
    20  C   12.384973  11.207695  10.212608   8.987157   8.889402
    21  C   12.990572  11.783090  10.904543   9.649264   9.369978
    22  C   14.365693  13.165213  12.284952  11.037449  10.758493
    23  C   15.079263  13.908374  12.932900  11.715627  11.576215
    24  N   14.588600  13.451529  12.386073  11.207023  11.215826
    25  C   13.282883  12.148106  11.064483   9.888497   9.936218
    26  H    2.600139   2.169052   1.088678   2.160839   3.410635
    27  H    4.484392   3.384405   2.154142   1.091568   2.161970
    28  H    4.488290   3.387061   3.902802   3.417316   2.160873
    29  H    2.601329   2.169093   3.436531   3.898706   3.410681
    30  H    5.999377   4.900471   3.935949   2.920874   3.205802
    31  H    8.492058   7.401834   6.397685   5.325563   5.468746
    32  H    9.894116   8.578656   7.898049   6.516152   5.856863
    33  H   12.486947  11.259164  10.478663   9.207495   8.792309
    34  H   14.948013  13.735438  12.931952  11.674891  11.290734
    35  H   16.166431  14.999067  14.025703  12.812297  12.667099
    36  H   13.028858  11.937259  10.776523   9.654037   9.848530
                    6          7          8          9         10
     6  C    0.000000
     7  C    1.391512   0.000000
     8  C    2.470764   3.747567   0.000000
     9  N    3.021634   4.378508   1.325040   0.000000
    10  O    4.326382   5.700139   2.224752   1.384879   0.000000
    11  C    4.656952   5.971950   2.260001   2.228402   1.379586
    12  C    3.750833   4.940150   1.459887   2.270023   2.285667
    13  C    4.542220   5.519442   2.647587   3.648148   3.593749
    14  C    5.876977   6.892905   3.822143   4.578573   4.121260
    15  C    6.454972   7.628824   4.155504   4.518407   3.662035
    16  C    5.994222   7.287582   3.605331   3.578091   2.474234
    17  O    7.804877   8.978761   5.515596   5.787938   4.786830
    18  C    8.709902   9.799392   6.432811   6.830623   5.905156
    19  O    8.535734   9.528557   6.317903   6.866336   6.107236
    20  C   10.049236  11.166448   7.769427   8.070634   7.034415
    21  C   10.414488  11.592772   8.171917   8.337042   7.206977
    22  C   11.788019  12.969065   9.552682   9.678956   8.511598
    23  C   12.688287  13.827482  10.417261  10.616597   9.478642
    24  N   12.411493  13.494735  10.127921  10.428151   9.365710
    25  C   11.159295  12.223000   8.880323   9.237079   8.235960
    26  H    3.898588   3.435983   4.624384   5.725562   6.770304
    27  H    3.417370   3.901420   2.679496   3.841634   4.598328
    28  H    1.092963   2.158248   2.685024   2.803818   4.055588
    29  H    2.160911   1.088749   4.629465   5.087061   6.415144
    30  H    4.372232   5.115074   3.007781   4.218689   4.448615
    31  H    6.648223   7.543174   4.769350   5.622386   5.210373
    32  H    6.789468   8.127362   4.428960   4.122225   2.814957
    33  H    9.747247  10.959844   7.558917   7.649543   6.503113
    34  H   12.238552  13.447151  10.053858  10.096491   8.895419
    35  H   13.768299  14.911335  11.500517  11.675207  10.514781
    36  H   11.132949  12.130255   8.882307   9.327409   8.420840
                   11         12         13         14         15
    11  C    0.000000
    12  C    1.417356   0.000000
    13  C    2.434012   1.391754   0.000000
    14  C    2.757291   2.384627   1.388208   0.000000
    15  C    2.335784   2.743072   2.417651   1.406634   0.000000
    16  C    1.385913   2.468975   2.879979   2.475163   1.394112
    17  O    3.563916   4.113859   3.681953   2.426656   1.374153
    18  C    4.642517   4.997838   4.315106   2.965390   2.380031
    19  O    4.814098   4.911727   4.073062   2.838765   2.712643
    20  C    5.846621   6.342495   5.702205   4.330755   3.625672
    21  C    6.128322   6.791319   6.299706   4.968923   4.075647
    22  C    7.482606   8.180258   7.681032   6.340095   5.467053
    23  C    8.394010   9.007937   8.396887   7.018696   6.266892
    24  N    8.211950   8.699895   7.988183   6.614142   6.011689
    25  C    7.038780   7.450933   6.712906   5.354009   4.817795
    26  H    6.496598   5.178370   5.088821   6.337461   7.421384
    27  H    4.149597   2.894269   2.903200   4.136551   5.061752
    28  H    4.612755   3.984120   4.954811   6.191648   6.576181
    29  H    6.805699   5.862567   6.489401   7.843190   8.533650
    30  H    3.428667   2.163175   1.089928   2.162259   3.414492
    31  H    3.845930   3.381625   2.155569   1.089300   2.164939
    32  H    2.177263   3.462455   3.964059   3.460436   2.177870
    33  H    5.495759   6.236996   5.880959   4.642921   3.644820
    34  H    7.956353   8.730910   8.320887   7.026538   6.091796
    35  H    9.457890  10.096003   9.488533   8.109367   7.354228
    36  H    7.197348   7.471832   6.654661   5.360643   5.019060
                   16         17         18         19         20
    16  C    0.000000
    17  O    2.322429   0.000000
    18  C    3.484755   1.374636   0.000000
    19  O    3.886432   2.259086   1.199604   0.000000
    20  C    4.564784   2.324971   1.465796   2.394455   0.000000
    21  C    4.788866   2.711498   2.521401   3.642257   1.396705
    22  C    6.128788   4.101245   3.773291   4.791892   2.400477
    23  C    7.044860   4.903086   4.201203   4.979724   2.738745
    24  N    6.915773   4.728745   3.711764   4.209201   2.407529
    25  C    5.796705   3.619839   2.458091   2.868079   1.408485
    26  H    7.551511   8.686703   9.047624   8.384908  10.493316
    27  H    5.132662   6.353046   6.782981   6.204096   8.243108
    28  H    5.944634   7.884214   8.915446   8.881210  10.184227
    29  H    8.130481   9.869557  10.748821  10.531633  12.087271
    30  H    3.969875   4.581668   5.043831   4.640599   6.427132
    31  H    3.444262   2.677693   2.775286   2.471129   4.060727
    32  H    1.084134   2.561348   3.730399   4.330570   4.541454
    33  H    4.185098   2.403853   2.783773   3.978704   2.173248
    34  H    6.616759   4.771026   4.674909   5.759445   3.395361
    35  H    8.099404   5.986329   5.296328   6.042459   3.835671
    36  H    6.061523   4.019974   2.685481   2.604641   2.194794
                   21         22         23         24         25
    21  C    0.000000
    22  C    1.392586   0.000000
    23  C    2.404175   1.401319   0.000000
    24  N    2.800209   2.412620   1.348054   0.000000
    25  C    2.416793   2.749370   2.314602   1.342321   0.000000
    26  H   11.291566  12.654526  13.202109  12.560490  11.232260
    27  H    9.016637  10.394260  10.979190  10.387446   9.054502
    28  H   10.412619  11.760186  12.748344  12.579746  11.372564
    29  H   12.442499  13.806380  14.715441  14.436628  13.182976
    30  H    7.097961   8.454084   9.099150   8.617644   7.334754
    31  H    4.833766   6.132087   6.670384   6.169482   4.919401
    32  H    4.562191   5.801061   6.775026   6.777761   5.782753
    33  H    1.093927   2.160619   3.402048   3.894122   3.419455
    34  H    2.161305   1.086905   2.165284   3.387282   3.835658
    35  H    3.414852   2.188871   1.097979   2.073158   3.283478
    36  H    3.427701   3.850586   3.294889   2.081460   1.101812
                   26         27         28         29         30
    26  H    0.000000
    27  H    2.492300   0.000000
    28  H    4.991419   4.313492   0.000000
    29  H    4.331953   4.990117   2.496456   0.000000
    30  H    4.294590   2.446437   4.972623   6.106013   0.000000
    31  H    6.640201   4.645697   7.043781   8.501815   2.502293
    32  H    8.550233   6.117779   6.619613   8.920775   5.053962
    33  H   10.957015   8.675747   9.659445  11.757742   6.736563
    34  H   13.363781  11.100761  12.124139  14.232168   9.122359
    35  H   14.287448  12.074416  13.810373  15.791075  10.181853
    36  H   10.846950   8.746987  11.443777  13.130393   7.179998
                   31         32         33         34         35
    31  H    0.000000
    32  H    4.338533   0.000000
    33  H    4.683059   3.911423   0.000000
    34  H    6.888801   6.193573   2.499507   0.000000
    35  H    7.740842   7.778891   4.332708   2.530722   0.000000
    36  H    4.843624   6.168630   4.351044   4.936392   4.151491
                   36
    36  H    0.000000
 Symmetry turned off by external request.
 Stoichiometry    C19H11FN2O3
 Framework group  C1[X(C19H11FN2O3)]
 Deg. of freedom   102
 Full point group                 C1      NOp   1
 Rotational constants (GHZ):           0.7669574           0.0713640           0.0669959
 Standard basis: VSTO-6G (5D, 7F)
   111 basis functions,   666 primitive gaussians,   111 cartesian basis functions
    61 alpha electrons       61 beta electrons
       nuclear repulsion energy       940.0221928446 Hartrees.
 Integral buffers will be    131072 words long.
 Regular integral format.
 Two-electron integral symmetry is turned off.
 Do NDO integrals.
 One-electron integrals computed using PRISM.
 Generate ZINDO/S integrals.
 NDO Nuclear repulsion=   755.634438725295 Hartrees.
 NBasis=   111 RedAO= F EigKep=  0.00D+00  NBF=   111
 NBsUse=   111 1.00D-04 EigRej=  0.00D+00 NBFU=   111
 DipDrv:  will hold  3 matrices at once.
 Simple Huckel Guess.
 A Direct SCF calculation will be performed.
 ReadGW:  IGet=1 IStart=        1007 Next=        1007 LGW=           0.
 Two-electron integral symmetry not used.
 Pruned (  99, 590) grid will be used in numerical quadrature.
 Closed shell SCF:
 Using DIIS extrapolation, IDIIS=  1040.
 Overlap will be assumed to be unity.
 NBasis=      111 NAllTT=     6216 NAllSq=    12321 NWIIB=         0
 INEq=       1070 IIJ=        1070 ID=         1328
 IDD=       13649 IDA=        1328 IDB=        7544 IF=        13760
 IFF=       26081 IFA=       13760 IFB=       19976 IScr2=     26192
 IV=        27080 IBuf2E=     1182 IMin=      43721
 IOpCl=         0
 NGot=   104857600 LenX=   104830521 LenY=   104817759
 Requested convergence on RMS density matrix=1.00D-08 within 128 cycles.
 Requested convergence on MAX density matrix=1.00D-06.
 Requested convergence on             energy=1.00D-06.
 No special actions if energy rises.
 Fock matrices will be formed incrementally for  20 cycles.
 Selected VarAcc= 1.

 Cycle   1  Pass 1  IDiag  1:
 One-electron energy=-0.178026974606D+04
 FoF2E:  PMaxA= 9.92D-01S
 Calling FoFJK with Acc= 0.00D+00 ICntrl=       0.
 FoF2E:  FMaxA= 1.58D+01S
 ChkPGP:  NMat=1 NMatS=1 NMatT=0
 EA=  841.163934095      0.00000000000      0.00000000000      0.00000000000    
 EB=  841.163934095      0.00000000000      0.00000000000      0.00000000000    
 ETotA=  841.163934095     ETotB=  841.163934095    
 1/2 <PG(P)>=         841.163934094795
 IMat=  1 1/2 <PG(P)>=         841.163934094795
 IMat=  1 EOne=-0.178026974606D+04 ETwo= 0.841163934095D+03 Energy=-0.939105811961D+03
 1/2 <PG(P)>=         841.163934094795
 E= -183.471373235340    
 DIIS: error= 5.95D-02 at cycle   1 NSaved=   1.
 B matrix at iteration          1
                 1             2 
      1   0.000000D+00 -0.100000D+01
      2  -0.100000D+01 -0.304683D+00
 Tr matrix at iteration          1
                 1             2 
      1   0.000000D+00  0.000000D+00
      2   0.000000D+00 -0.489709D+02
 BE matrix at iteration          1
                 1             2 
      1   0.000000D+00 -0.100000D+01
      2  -0.100000D+01  0.000000D+00
 NSaved= 1 IEnMin= 1 EnMin= -183.471373235340     IErMin= 1 ErrMin= 5.95D-02
 ErrMax= 5.95D-02  0.00D+00 EMaxC= 1.00D-01 BMatC= 3.05D-01 BMatP= 3.05D-01
 IDIUse=3 WtCom= 4.05D-01 WtEn= 5.95D-01
 UpdtCf It   0X -183.4713732      1.00000000
 UpdtCf It   0Y -183.4713732      1.00000000
 EnCoef: B12  0.0000000D+00 lambda  0.000000
 UpdtCf It   1F -183.4713732      1.00000000
 UpdtCf It   1B -183.4713732      1.00000000
 Eold -183.4713732353     Efwd -183.4713732353     Ebck -183.4713732353    
 Coeff-Com:  0.100D+01
 Coeff-En:   0.100D+01
 Coeff:      0.100D+01
 NOrbs=   111 LenY=   104817759 NE2=      944304 LScr= 7
 GapD=    2.000 DampG=2.000 DampE=0.500 DampFc=1.0000 IDamp=-1.
 RMSDP=7.82D-03 MaxDP=1.26D-01              OVMax= 0.00D+00

 Cycle   2  Pass 1  IDiag  1:
 One-electron energy=-0.178196821770D+04
 RMSU=  7.80D-03    CP:  9.94D-01
 FoF2E:  PMaxA= 1.20D-01S
 Calling FoFJK with Acc= 0.00D+00 ICntrl=       0.
 FoF2E:  FMaxA= 1.60D-01S
 ChkPGP:  NMat=1 NMatS=1 NMatT=0
 EA=-0.636342767326E-01  0.00000000000      0.00000000000      0.00000000000    
 EB=-0.636342767326E-01  0.00000000000      0.00000000000      0.00000000000    
 ETotA=-0.636342767326E-01 ETotB=-0.636342767326E-01
 1/2 <PG(P)>=          -0.063634276733
 IMat=  1 1/2 <PG(P)>=         842.110413113657
 IMat=  1 EOne=-0.178196821770D+04 ETwo= 0.842110413114D+03 Energy=-0.939857804585D+03
 1/2 <PG(P)>=         842.110413113657
 E= -184.223365859251     Delta-E=       -0.751992623911 Rises=F Damp=F
 DIIS: error= 1.75D-02 at cycle   2 NSaved=   2.
 B matrix at iteration          2
                 1             2             3 
      1   0.000000D+00 -0.100000D+01 -0.100000D+01
      2  -0.100000D+01 -0.304683D+00 -0.460571D-01
      3  -0.100000D+01 -0.460571D-01 -0.237499D-01
 Tr matrix at iteration          2
                 1             2             3 
      1  -0.183471D+03  0.000000D+00  0.000000D+00
      2   0.100000D+01 -0.489709D+02 -0.492959D+02
      3   0.000000D+00 -0.484466D+02 -0.488737D+02
 BE matrix at iteration          2
                 1             2             3 
      1   0.000000D+00 -0.100000D+01 -0.100000D+01
      2  -0.100000D+01  0.000000D+00 -0.102114D+00
      3  -0.100000D+01 -0.102114D+00  0.000000D+00
 NSaved= 2 IEnMin= 2 EnMin= -184.223365859251     IErMin= 2 ErrMin= 1.75D-02
 ErrMax= 1.75D-02  0.00D+00 EMaxC= 1.00D-01 BMatC= 2.37D-02 BMatP= 3.05D-01
 IDIUse=3 WtCom= 8.25D-01 WtEn= 1.75D-01
 Inv2:  IOpt= 1 Iter= 1 AM= 3.40D-16 Conv= 1.00D-12.
  NMat       2 lam      0.000000      B12    -0.102114
 UpdtCf It   0X -184.2233659      0.00000000  1.00000000
  NMat       1 lam      0.000000      B12    -0.102114
 UpdtCf It   0Y -184.2233659      0.00000000  1.00000000
 EnCoef: B12 -0.1021143D+00 lambda  0.000000
 UpdtCf It   1F -184.2233659      0.00000000  1.00000000
 UpdtCf It   1B -184.2233659      0.00000000  1.00000000
 Eold -183.4713732353     Efwd -184.2233658593     Ebck -184.2233658593    
 Coeff-Com: -0.944D-01 0.109D+01
 Coeff-En:   0.000D+00 0.100D+01
 Coeff:     -0.778D-01 0.108D+01
 NOrbs=   111 LenY=   104817759 NE2=      944304 LScr= 7
 RMSDP=2.33D-03 MaxDP=5.21D-02 DE=-7.52D-01 OVMax= 0.00D+00

 Cycle   3  Pass 1  IDiag  1:
 One-electron energy=-0.178181714596D+04
 RMSU=  2.12D-03    CP:  9.92D-01  1.12D+00
 FoF2E:  PMaxA= 6.17D-02S
 Calling FoFJK with Acc= 0.00D+00 ICntrl=       0.
 FoF2E:  FMaxA= 4.67D-02S
 ChkPGP:  NMat=1 NMatS=1 NMatT=0
 EA= 0.755255855945E-02  0.00000000000      0.00000000000      0.00000000000    
 EB= 0.755255855945E-02  0.00000000000      0.00000000000      0.00000000000    
 ETotA= 0.755255855945E-02 ETotB= 0.755255855945E-02
 1/2 <PG(P)>=           0.007552558559
 IMat=  1 1/2 <PG(P)>=         841.908658386215
 IMat=  1 EOne=-0.178181714596D+04 ETwo= 0.841908658386D+03 Energy=-0.939908487578D+03
 1/2 <PG(P)>=         841.908658386215
 E= -184.274048852580     Delta-E=       -0.050682993329 Rises=F Damp=F
 DIIS: error= 5.66D-03 at cycle   3 NSaved=   3.
 B matrix at iteration          3
                 1             2             3             4 
      1   0.000000D+00 -0.100000D+01 -0.100000D+01 -0.100000D+01
      2  -0.100000D+01 -0.304683D+00 -0.460571D-01 -0.185787D-01
      3  -0.100000D+01 -0.460571D-01 -0.237499D-01  0.110443D-02
      4  -0.100000D+01 -0.185787D-01  0.110443D-02 -0.332883D-02
 Tr matrix at iteration          3
                 1             2             3             4 
      1  -0.184223D+03  0.000000D+00  0.000000D+00  0.000000D+00
      2   0.000000D+00 -0.489709D+02 -0.492959D+02 -0.492698D+02
      3   0.100000D+01 -0.484466D+02 -0.488737D+02 -0.488970D+02
      4   0.000000D+00 -0.484961D+02 -0.489725D+02 -0.489999D+02
 BE matrix at iteration          3
                 1             2             3             4 
      1   0.000000D+00 -0.100000D+01 -0.100000D+01 -0.100000D+01
      2  -0.100000D+01  0.000000D+00 -0.102114D+00 -0.205038D+00
      3  -0.100000D+01 -0.102114D+00  0.000000D+00 -0.411458D-02
      4  -0.100000D+01 -0.205038D+00 -0.411458D-02  0.000000D+00
 NSaved= 3 IEnMin= 3 EnMin= -184.274048852580     IErMin= 3 ErrMin= 5.66D-03
 ErrMax= 5.66D-03  0.00D+00 EMaxC= 1.00D-01 BMatC= 3.33D-03 BMatP= 2.37D-02
 IDIUse=3 WtCom= 9.43D-01 WtEn= 5.66D-02
 Inv2:  IOpt= 1 Iter= 1 AM= 6.47D-15 Conv= 1.00D-12.
  NMat       2 lam      0.000000      B12    -0.102114
  NMat       3 lam      0.000000      B12    -0.004115
 UpdtCf It   0X -184.2740489      0.00000000  0.00000000  1.00000000
  NMat       2 lam      0.000000      B12    -0.004115
  NMat       1 lam      0.000000      B12    -0.205038
 UpdtCf It   0Y -184.2740489      0.00000000  0.00000000  1.00000000
 EnCoef: B12 -0.4114579D-02 lambda  0.000000
  NMat       1 lam      0.000000      B12    -0.205038
  NMat       2 lam      0.000000      B12    -0.004115
  NMat       3 lam      0.000000      B12     0.000000
 UpdtCf It   1F -184.2740489      0.00000000  0.00000000  1.00000000
  NMat       3 lam      0.000000      B12     0.000000
  NMat       2 lam      0.000000      B12    -0.004115
  NMat       1 lam      0.000000      B12    -0.205038
 UpdtCf It   1B -184.2740489      0.00000000  0.00000000  1.00000000
 Eold -184.2233658593     Efwd -184.2740488526     Ebck -184.2740488526    
 Coeff-Com: -0.851D-01 0.244D+00 0.841D+00
 Coeff-En:   0.000D+00 0.000D+00 0.100D+01
 Coeff:     -0.802D-01 0.230D+00 0.850D+00
 NOrbs=   111 LenY=   104817759 NE2=      944304 LScr= 7
 RMSDP=7.67D-04 MaxDP=1.73D-02 DE=-5.07D-02 OVMax= 0.00D+00

 Cycle   4  Pass 1  IDiag  1:
 One-electron energy=-0.178188823329D+04
 RMSU=  4.88D-04    CP:  9.91D-01  1.20D+00  9.75D-01
 FoF2E:  PMaxA= 1.02D-02S
 Calling FoFJK with Acc= 0.00D+00 ICntrl=       0.
 FoF2E:  FMaxA= 1.53D-02S
 ChkPGP:  NMat=1 NMatS=1 NMatT=0
 EA= 0.330288764902E-03  0.00000000000      0.00000000000      0.00000000000    
 EB= 0.330288764902E-03  0.00000000000      0.00000000000      0.00000000000    
 ETotA= 0.330288764902E-03 ETotB= 0.330288764902E-03
 1/2 <PG(P)>=           0.000330288765
 IMat=  1 1/2 <PG(P)>=         841.973139908268
 IMat=  1 EOne=-0.178188823329D+04 ETwo= 0.841973139908D+03 Energy=-0.939915093385D+03
 1/2 <PG(P)>=         841.973139908268
 E= -184.280654659956     Delta-E=       -0.006605807376 Rises=F Damp=F
 DIIS: error= 1.19D-03 at cycle   4 NSaved=   4.
 B matrix at iteration          4
                 1             2             3             4             5 
      1   0.000000D+00 -0.100000D+01 -0.100000D+01 -0.100000D+01 -0.100000D+01
      2  -0.100000D+01 -0.304683D+00 -0.460571D-01 -0.185787D-01 -0.108832D-02
      3  -0.100000D+01 -0.460571D-01 -0.237499D-01  0.110443D-02 -0.872972D-03
      4  -0.100000D+01 -0.185787D-01  0.110443D-02 -0.332883D-02 -0.108018D-03
      5  -0.100000D+01 -0.108832D-02 -0.872972D-03 -0.108018D-03 -0.131203D-03
 Tr matrix at iteration          4
                 1             2             3             4             5 
      1  -0.184274D+03  0.000000D+00  0.000000D+00  0.000000D+00  0.000000D+00
      2   0.000000D+00 -0.489709D+02 -0.492959D+02 -0.492698D+02 -0.492637D+02
      3   0.000000D+00 -0.484466D+02 -0.488737D+02 -0.488970D+02 -0.488940D+02
      4   0.100000D+01 -0.484961D+02 -0.489725D+02 -0.489999D+02 -0.490033D+02
      5   0.000000D+00 -0.484544D+02 -0.489340D+02 -0.489678D+02 -0.489710D+02
 BE matrix at iteration          4
                 1             2             3             4             5 
      1   0.000000D+00 -0.100000D+01 -0.100000D+01 -0.100000D+01 -0.100000D+01
      2  -0.100000D+01  0.000000D+00 -0.102114D+00 -0.205038D+00 -0.223850D+00
      3  -0.100000D+01 -0.102114D+00  0.000000D+00 -0.411458D-02 -0.166617D-01
      4  -0.100000D+01 -0.205038D+00 -0.411458D-02  0.000000D+00  0.236602D-03
      5  -0.100000D+01 -0.223850D+00 -0.166617D-01  0.236602D-03  0.000000D+00
 NSaved= 4 IEnMin= 4 EnMin= -184.280654659956     IErMin= 4 ErrMin= 1.19D-03
 ErrMax= 1.19D-03  0.00D+00 EMaxC= 1.00D-01 BMatC= 1.31D-04 BMatP= 3.33D-03
 IDIUse=3 WtCom= 9.88D-01 WtEn= 1.19D-02
 Inv2:  IOpt= 1 Iter= 1 AM= 5.03D-13 Conv= 1.00D-12.
  NMat       2 lam      0.000000      B12    -0.102114
  NMat       3 lam      0.000000      B12    -0.004115
  NMat       4 lam     14.459770      B12     0.000237
 UpdtCf It   0X -184.2806547      0.00000000  0.00000000  0.00000000  1.00000000
  NMat       3 lam    -13.459770      B12     0.000237
  NMat       2 lam      0.000000      B12    -0.016662
  NMat       1 lam      0.000000      B12    -0.223850
 UpdtCf It   0Y -184.2806547      0.00000000  0.00000000  0.00000000  1.00000000
 EnCoef: B12  0.2366016D-03 lambda-13.459770
  NMat       1 lam      0.000000      B12    -0.223850
  NMat       2 lam      0.000000      B12    -0.016662
  NMat       3 lam    -13.459770      B12     0.000237
  NMat       4 lam      0.000000      B12     0.000000
 UpdtCf It   1F -184.2806547      0.00000000  0.00000000  0.00000000  1.00000000
  NMat       4 lam      0.000000      B12     0.000000
  NMat       3 lam    -13.459770      B12     0.000237
  NMat       2 lam      0.000000      B12    -0.016662
  NMat       1 lam      0.000000      B12    -0.223850
 UpdtCf It   1B -184.2806547      0.00000000  0.00000000  0.00000000  1.00000000
 Eold -184.2740488526     Efwd -184.2806546600     Ebck -184.2806546600    
 Coeff-Com:  0.126D-01-0.677D-01-0.102D+00 0.116D+01
 Coeff-En:   0.000D+00 0.000D+00 0.000D+00 0.100D+01
 Coeff:      0.125D-01-0.669D-01-0.101D+00 0.116D+01
 NOrbs=   111 LenY=   104817759 NE2=      944304 LScr= 7
 RMSDP=3.09D-04 MaxDP=6.62D-03 DE=-6.61D-03 OVMax= 0.00D+00

 Cycle   5  Pass 1  IDiag  1:
 One-electron energy=-0.178188355902D+04
 RMSU=  1.59D-04    CP:  9.90D-01  1.20D+00  1.08D+00  1.26D+00
 FoF2E:  PMaxA= 2.64D-03S
 Calling FoFJK with Acc= 0.00D+00 ICntrl=       0.
 FoF2E:  FMaxA= 3.45D-03S
 ChkPGP:  NMat=1 NMatS=1 NMatT=0
 EA= 0.124747528130E-04  0.00000000000      0.00000000000      0.00000000000    
 EB= 0.124747528130E-04  0.00000000000      0.00000000000      0.00000000000    
 ETotA= 0.124747528130E-04 ETotB= 0.124747528130E-04
 1/2 <PG(P)>=           0.000012474753
 IMat=  1 1/2 <PG(P)>=         841.967840927080
 IMat=  1 EOne=-0.178188355902D+04 ETwo= 0.841967840927D+03 Energy=-0.939915718091D+03
 1/2 <PG(P)>=         841.967840927080
 E= -184.281279365817     Delta-E=       -0.000624705862 Rises=F Damp=F
 DIIS: error= 4.00D-04 at cycle   5 NSaved=   5.
 B matrix at iteration          5
                 1             2             3             4             5 
      1   0.000000D+00 -0.100000D+01 -0.100000D+01 -0.100000D+01 -0.100000D+01
      2  -0.100000D+01 -0.304683D+00 -0.460571D-01 -0.185787D-01 -0.108832D-02
      3  -0.100000D+01 -0.460571D-01 -0.237499D-01  0.110443D-02 -0.872972D-03
      4  -0.100000D+01 -0.185787D-01  0.110443D-02 -0.332883D-02 -0.108018D-03
      5  -0.100000D+01 -0.108832D-02 -0.872972D-03 -0.108018D-03 -0.131203D-03
      6  -0.100000D+01 -0.573016D-03  0.422062D-04 -0.195727D-03 -0.157471D-04
                 6 
      1  -0.100000D+01
      2  -0.573016D-03
      3   0.422062D-04
      4  -0.195727D-03
      5  -0.157471D-04
      6  -0.248908D-04
 Tr matrix at iteration          5
                 1             2             3             4             5 
      1  -0.184281D+03  0.000000D+00  0.000000D+00  0.000000D+00  0.000000D+00
      2   0.000000D+00 -0.489709D+02 -0.492959D+02 -0.492698D+02 -0.492637D+02
      3   0.000000D+00 -0.484466D+02 -0.488737D+02 -0.488970D+02 -0.488940D+02
      4   0.000000D+00 -0.484961D+02 -0.489725D+02 -0.489999D+02 -0.490033D+02
      5   0.100000D+01 -0.484544D+02 -0.489340D+02 -0.489678D+02 -0.489710D+02
      6   0.000000D+00 -0.484522D+02 -0.489350D+02 -0.489697D+02 -0.489735D+02
                 6 
      1   0.000000D+00
      2  -0.492591D+02
      3  -0.488927D+02
      4  -0.490029D+02
      5  -0.489712D+02
      6  -0.489739D+02
 BE matrix at iteration          5
                 1             2             3             4             5 
      1   0.000000D+00 -0.100000D+01 -0.100000D+01 -0.100000D+01 -0.100000D+01
      2  -0.100000D+01  0.000000D+00 -0.102114D+00 -0.205038D+00 -0.223850D+00
      3  -0.100000D+01 -0.102114D+00  0.000000D+00 -0.411458D-02 -0.166617D-01
      4  -0.100000D+01 -0.205038D+00 -0.411458D-02  0.000000D+00  0.236602D-03
      5  -0.100000D+01 -0.223850D+00 -0.166617D-01  0.236602D-03  0.000000D+00
      6  -0.100000D+01 -0.233605D+00 -0.199275D-01 -0.127083D-02 -0.214581D-03
                 6 
      1  -0.100000D+01
      2  -0.233605D+00
      3  -0.199275D-01
      4  -0.127083D-02
      5  -0.214581D-03
      6   0.000000D+00
 NSaved= 5 IEnMin= 5 EnMin= -184.281279365817     IErMin= 5 ErrMin= 4.00D-04
 ErrMax= 4.00D-04  0.00D+00 EMaxC= 1.00D-01 BMatC= 2.49D-05 BMatP= 1.31D-04
 IDIUse=3 WtCom= 9.96D-01 WtEn= 4.00D-03
 Inv2:  IOpt= 1 Iter= 1 AM= 2.75D-12 Conv= 1.00D-12.
 Inv2:  IOpt= 1 Iter= 2 AM= 3.23D-28 Conv= 1.00D-12.
  NMat       2 lam      0.000000      B12    -0.102114
  NMat       3 lam      0.000000      B12    -0.004115
  NMat       4 lam     14.459770      B12     0.000237
  NMat       5 lam      0.000000      B12    -0.000215
 UpdtCf It   0X -184.2812794      0.00000000  0.00000000  0.00000000  0.00000000  1.00000000
  NMat       4 lam      0.000000      B12    -0.000215
  NMat       3 lam      0.000000      B12    -0.001271
  NMat       2 lam      0.000000      B12    -0.019928
  NMat       1 lam      0.000000      B12    -0.233605
 UpdtCf It   0Y -184.2812794      0.00000000  0.00000000  0.00000000  0.00000000  1.00000000
 EnCoef: B12 -0.2145813D-03 lambda  0.000000
  NMat       1 lam      0.000000      B12    -0.233605
  NMat       2 lam      0.000000      B12    -0.019928
  NMat       3 lam      0.000000      B12    -0.001271
  NMat       4 lam      0.000000      B12    -0.000215
  NMat       5 lam      0.000000      B12     0.000000
 UpdtCf It   1F -184.2812794      0.00000000  0.00000000  0.00000000  0.00000000  1.00000000
  NMat       5 lam      0.000000      B12     0.000000
  NMat       4 lam      0.000000      B12    -0.000215
  NMat       3 lam      0.000000      B12    -0.001271
  NMat       2 lam      0.000000      B12    -0.019928
  NMat       1 lam      0.000000      B12    -0.233605
 UpdtCf It   1B -184.2812794      0.00000000  0.00000000  0.00000000  0.00000000  1.00000000
 Eold -184.2806546600     Efwd -184.2812793658     Ebck -184.2812793658    
 Coeff-Com:  0.850D-02-0.253D-01-0.115D+00 0.152D+00 0.980D+00
 Coeff-En:   0.000D+00 0.000D+00 0.000D+00 0.000D+00 0.100D+01
 Coeff:      0.847D-02-0.252D-01-0.115D+00 0.152D+00 0.980D+00
 NOrbs=   111 LenY=   104817759 NE2=      944304 LScr= 7
 RMSDP=1.13D-04 MaxDP=2.53D-03 DE=-6.25D-04 OVMax= 0.00D+00

 Cycle   6  Pass 1  IDiag  1:
 One-electron energy=-0.178189098695D+04
 RMSU=  4.76D-05    CP:  9.90D-01  1.21D+00  1.11D+00  1.41D+00  1.24D+00
 FoF2E:  PMaxA= 7.36D-04S
 Calling FoFJK with Acc= 0.00D+00 ICntrl=       0.
 FoF2E:  FMaxA= 1.12D-03S
 ChkPGP:  NMat=1 NMatS=1 NMatT=0
 EA= 0.302831590578E-05  0.00000000000      0.00000000000      0.00000000000    
 EB= 0.302831590578E-05  0.00000000000      0.00000000000      0.00000000000    
 ETotA= 0.302831590578E-05 ETotB= 0.302831590578E-05
 1/2 <PG(P)>=           0.000003028316
 IMat=  1 1/2 <PG(P)>=         841.975180764099
 IMat=  1 EOne=-0.178189098695D+04 ETwo= 0.841975180764D+03 Energy=-0.939915806188D+03
 1/2 <PG(P)>=         841.975180764099
 E= -184.281367463132     Delta-E=       -0.000088097315 Rises=F Damp=F
 DIIS: error= 1.86D-04 at cycle   6 NSaved=   6.
 B matrix at iteration          6
                 1             2             3             4             5 
      1   0.000000D+00 -0.100000D+01 -0.100000D+01 -0.100000D+01 -0.100000D+01
      2  -0.100000D+01 -0.304683D+00 -0.460571D-01 -0.185787D-01 -0.108832D-02
      3  -0.100000D+01 -0.460571D-01 -0.237499D-01  0.110443D-02 -0.872972D-03
      4  -0.100000D+01 -0.185787D-01  0.110443D-02 -0.332883D-02 -0.108018D-03
      5  -0.100000D+01 -0.108832D-02 -0.872972D-03 -0.108018D-03 -0.131203D-03
      6  -0.100000D+01 -0.573016D-03  0.422062D-04 -0.195727D-03 -0.157471D-04
      7  -0.100000D+01 -0.181579D-03  0.549718D-04 -0.528732D-04 -0.655999D-05
                 6             7 
      1  -0.100000D+01 -0.100000D+01
      2  -0.573016D-03 -0.181579D-03
      3   0.422062D-04  0.549718D-04
      4  -0.195727D-03 -0.528732D-04
      5  -0.157471D-04 -0.655999D-05
      6  -0.248908D-04 -0.501348D-05
      7  -0.501348D-05 -0.249584D-05
 Tr matrix at iteration          6
                 1             2             3             4             5 
      1  -0.184281D+03  0.000000D+00  0.000000D+00  0.000000D+00  0.000000D+00
      2   0.000000D+00 -0.489709D+02 -0.492959D+02 -0.492698D+02 -0.492637D+02
      3   0.000000D+00 -0.484466D+02 -0.488737D+02 -0.488970D+02 -0.488940D+02
      4   0.000000D+00 -0.484961D+02 -0.489725D+02 -0.489999D+02 -0.490033D+02
      5   0.000000D+00 -0.484544D+02 -0.489340D+02 -0.489678D+02 -0.489710D+02
      6   0.100000D+01 -0.484522D+02 -0.489350D+02 -0.489697D+02 -0.489735D+02
      7   0.000000D+00 -0.484471D+02 -0.489306D+02 -0.489658D+02 -0.489697D+02
                 6             7 
      1   0.000000D+00  0.000000D+00
      2  -0.492591D+02 -0.492578D+02
      3  -0.488927D+02 -0.488920D+02
      4  -0.490029D+02 -0.490027D+02
      5  -0.489712D+02 -0.489711D+02
      6  -0.489739D+02 -0.489740D+02
      7  -0.489703D+02 -0.489703D+02
 BE matrix at iteration          6
                 1             2             3             4             5 
      1   0.000000D+00 -0.100000D+01 -0.100000D+01 -0.100000D+01 -0.100000D+01
      2  -0.100000D+01  0.000000D+00 -0.102114D+00 -0.205038D+00 -0.223850D+00
      3  -0.100000D+01 -0.102114D+00  0.000000D+00 -0.411458D-02 -0.166617D-01
      4  -0.100000D+01 -0.205038D+00 -0.411458D-02  0.000000D+00  0.236602D-03
      5  -0.100000D+01 -0.223850D+00 -0.166617D-01  0.236602D-03  0.000000D+00
      6  -0.100000D+01 -0.233605D+00 -0.199275D-01 -0.127083D-02 -0.214581D-03
      7  -0.100000D+01 -0.236342D+00 -0.213810D-01 -0.175261D-02 -0.462236D-03
                 6             7 
      1  -0.100000D+01 -0.100000D+01
      2  -0.233605D+00 -0.236342D+00
      3  -0.199275D-01 -0.213810D-01
      4  -0.127083D-02 -0.175261D-02
      5  -0.214581D-03 -0.462236D-03
      6   0.000000D+00 -0.335934D-04
      7  -0.335934D-04  0.000000D+00
 NSaved= 6 IEnMin= 6 EnMin= -184.281367463132     IErMin= 6 ErrMin= 1.86D-04
 ErrMax= 1.86D-04  0.00D+00 EMaxC= 1.00D-01 BMatC= 2.50D-06 BMatP= 2.49D-05
 IDIUse=3 WtCom= 9.98D-01 WtEn= 1.86D-03
 Inv2:  IOpt= 1 Iter= 1 AM= 9.26D-11 Conv= 1.00D-12.
 Inv2:  IOpt= 1 Iter= 2 AM= 2.26D-25 Conv= 1.00D-12.
  NMat       2 lam      0.000000      B12    -0.102114
  NMat       3 lam      0.000000      B12    -0.004115
  NMat       4 lam     14.459770      B12     0.000237
  NMat       5 lam      0.000000      B12    -0.000215
  NMat       6 lam      0.000000      B12    -0.000034
 UpdtCf It   0X -184.2813675      0.00000000  0.00000000  0.00000000  0.00000000  0.00000000  1.00000000
  NMat       5 lam      0.000000      B12    -0.000034
  NMat       4 lam      0.000000      B12    -0.000462
  NMat       3 lam      0.000000      B12    -0.001753
  NMat       2 lam      0.000000      B12    -0.021381
  NMat       1 lam      0.000000      B12    -0.236342
 UpdtCf It   0Y -184.2813675      0.00000000  0.00000000  0.00000000  0.00000000  0.00000000  1.00000000
 EnCoef: B12 -0.3359343D-04 lambda  0.000000
  NMat       1 lam      0.000000      B12    -0.236342
  NMat       2 lam      0.000000      B12    -0.021381
  NMat       3 lam      0.000000      B12    -0.001753
  NMat       4 lam      0.000000      B12    -0.000462
  NMat       5 lam      0.000000      B12    -0.000034
  NMat       6 lam      0.000000      B12     0.000000
 UpdtCf It   1F -184.2813675      0.00000000  0.00000000  0.00000000  0.00000000  0.00000000  1.00000000
  NMat       6 lam      0.000000      B12     0.000000
  NMat       5 lam      0.000000      B12    -0.000034
  NMat       4 lam      0.000000      B12    -0.000462
  NMat       3 lam      0.000000      B12    -0.001753
  NMat       2 lam      0.000000      B12    -0.021381
  NMat       1 lam      0.000000      B12    -0.236342
 UpdtCf It   1B -184.2813675      0.00000000  0.00000000  0.00000000  0.00000000  0.00000000  1.00000000
 Eold -184.2812793658     Efwd -184.2813674631     Ebck -184.2813674631    
 Coeff-Com: -0.241D-02 0.114D-01 0.947D-02-0.994D-01-0.136D+00 0.122D+01
 Coeff-En:   0.000D+00 0.000D+00 0.000D+00 0.000D+00 0.000D+00 0.100D+01
 Coeff:     -0.241D-02 0.114D-01 0.945D-02-0.993D-01-0.136D+00 0.122D+01
 NOrbs=   111 LenY=   104817759 NE2=      944304 LScr= 7
 RMSDP=5.25D-05 MaxDP=1.18D-03 DE=-8.81D-05 OVMax= 0.00D+00

 Cycle   7  Pass 1  IDiag  1:
 One-electron energy=-0.178189369223D+04
 RMSU=  1.98D-05    CP:  9.90D-01  1.21D+00  1.12D+00  1.45D+00  1.47D+00
                    CP:  1.39D+00
 FoF2E:  PMaxA= 4.47D-04S
 Calling FoFJK with Acc= 0.00D+00 ICntrl=       0.
 FoF2E:  FMaxA= 6.43D-04S
 ChkPGP:  NMat=1 NMatS=1 NMatT=0
 EA= 0.337148166965E-06  0.00000000000      0.00000000000      0.00000000000    
 EB= 0.337148166965E-06  0.00000000000      0.00000000000      0.00000000000    
 ETotA= 0.337148166965E-06 ETotB= 0.337148166965E-06
 1/2 <PG(P)>=           0.000000337148
 IMat=  1 1/2 <PG(P)>=         841.977872472966
 IMat=  1 EOne=-0.178189369223D+04 ETwo= 0.841977872473D+03 Energy=-0.939915819754D+03
 1/2 <PG(P)>=         841.977872472966
 E= -184.281381028904     Delta-E=       -0.000013565773 Rises=F Damp=F
 DIIS: error= 5.60D-05 at cycle   7 NSaved=   7.
 B matrix at iteration          7
                 1             2             3             4             5 
      1   0.000000D+00 -0.100000D+01 -0.100000D+01 -0.100000D+01 -0.100000D+01
      2  -0.100000D+01 -0.304683D+00 -0.460571D-01 -0.185787D-01 -0.108832D-02
      3  -0.100000D+01 -0.460571D-01 -0.237499D-01  0.110443D-02 -0.872972D-03
      4  -0.100000D+01 -0.185787D-01  0.110443D-02 -0.332883D-02 -0.108018D-03
      5  -0.100000D+01 -0.108832D-02 -0.872972D-03 -0.108018D-03 -0.131203D-03
      6  -0.100000D+01 -0.573016D-03  0.422062D-04 -0.195727D-03 -0.157471D-04
      7  -0.100000D+01 -0.181579D-03  0.549718D-04 -0.528732D-04 -0.655999D-05
      8  -0.100000D+01 -0.189627D-04  0.155177D-04 -0.117689D-04 -0.338514D-07
                 6             7             8 
      1  -0.100000D+01 -0.100000D+01 -0.100000D+01
      2  -0.573016D-03 -0.181579D-03 -0.189627D-04
      3   0.422062D-04  0.549718D-04  0.155177D-04
      4  -0.195727D-03 -0.528732D-04 -0.117689D-04
      5  -0.157471D-04 -0.655999D-05 -0.338514D-07
      6  -0.248908D-04 -0.501348D-05 -0.236929D-05
      7  -0.501348D-05 -0.249584D-05 -0.617527D-06
      8  -0.236929D-05 -0.617527D-06 -0.398896D-06
 Tr matrix at iteration          7
                 1             2             3             4             5 
      1  -0.184281D+03  0.000000D+00  0.000000D+00  0.000000D+00  0.000000D+00
      2   0.000000D+00 -0.489709D+02 -0.492959D+02 -0.492698D+02 -0.492637D+02
      3   0.000000D+00 -0.484466D+02 -0.488737D+02 -0.488970D+02 -0.488940D+02
      4   0.000000D+00 -0.484961D+02 -0.489725D+02 -0.489999D+02 -0.490033D+02
      5   0.000000D+00 -0.484544D+02 -0.489340D+02 -0.489678D+02 -0.489710D+02
      6   0.000000D+00 -0.484522D+02 -0.489350D+02 -0.489697D+02 -0.489735D+02
      7   0.100000D+01 -0.484471D+02 -0.489306D+02 -0.489658D+02 -0.489697D+02
      8   0.000000D+00 -0.484454D+02 -0.489290D+02 -0.489643D+02 -0.489683D+02
                 6             7             8 
      1   0.000000D+00  0.000000D+00  0.000000D+00
      2  -0.492591D+02 -0.492578D+02 -0.492574D+02
      3  -0.488927D+02 -0.488920D+02 -0.488918D+02
      4  -0.490029D+02 -0.490027D+02 -0.490026D+02
      5  -0.489712D+02 -0.489711D+02 -0.489711D+02
      6  -0.489739D+02 -0.489740D+02 -0.489740D+02
      7  -0.489703D+02 -0.489703D+02 -0.489703D+02
      8  -0.489689D+02 -0.489690D+02 -0.489690D+02
 BE matrix at iteration          7
                 1             2             3             4             5 
      1   0.000000D+00 -0.100000D+01 -0.100000D+01 -0.100000D+01 -0.100000D+01
      2  -0.100000D+01  0.000000D+00 -0.102114D+00 -0.205038D+00 -0.223850D+00
      3  -0.100000D+01 -0.102114D+00  0.000000D+00 -0.411458D-02 -0.166617D-01
      4  -0.100000D+01 -0.205038D+00 -0.411458D-02  0.000000D+00  0.236602D-03
      5  -0.100000D+01 -0.223850D+00 -0.166617D-01  0.236602D-03  0.000000D+00
      6  -0.100000D+01 -0.233605D+00 -0.199275D-01 -0.127083D-02 -0.214581D-03
      7  -0.100000D+01 -0.236342D+00 -0.213810D-01 -0.175261D-02 -0.462236D-03
      8  -0.100000D+01 -0.237073D+00 -0.218523D-01 -0.195457D-02 -0.573909D-03
                 6             7             8 
      1  -0.100000D+01 -0.100000D+01 -0.100000D+01
      2  -0.233605D+00 -0.236342D+00 -0.237073D+00
      3  -0.199275D-01 -0.213810D-01 -0.218523D-01
      4  -0.127083D-02 -0.175261D-02 -0.195457D-02
      5  -0.214581D-03 -0.462236D-03 -0.573909D-03
      6   0.000000D+00 -0.335934D-04 -0.753371D-04
      7  -0.335934D-04  0.000000D+00 -0.772737D-05
      8  -0.753371D-04 -0.772737D-05  0.000000D+00
 NSaved= 7 IEnMin= 7 EnMin= -184.281381028904     IErMin= 7 ErrMin= 5.60D-05
 ErrMax= 5.60D-05  0.00D+00 EMaxC= 1.00D-01 BMatC= 3.99D-07 BMatP= 2.50D-06
 IDIUse=1 WtCom= 1.00D+00 WtEn= 0.00D+00
 Inv2:  IOpt= 1 Iter= 1 AM= 4.14D-10 Conv= 1.00D-12.
 Inv2:  IOpt= 1 Iter= 2 AM= 6.10D-25 Conv= 1.00D-12.
 Coeff-Com: -0.741D-03 0.198D-02 0.116D-01 0.871D-02-0.172D+00-0.785D-01
 Coeff-Com:  0.123D+01
 Coeff-En:   0.000D+00 0.000D+00 0.000D+00 0.000D+00 0.000D+00 0.000D+00
 Coeff-En:   0.000D+00
 Coeff:     -0.741D-03 0.198D-02 0.116D-01 0.871D-02-0.172D+00-0.785D-01
 Coeff:      0.123D+01
 NOrbs=   111 LenY=   104817759 NE2=      944304 LScr= 7
 RMSDP=2.25D-05 MaxDP=4.28D-04 DE=-1.36D-05 OVMax= 0.00D+00

 Cycle   8  Pass 1  IDiag  1:
 One-electron energy=-0.178189489596D+04
 RMSU=  5.81D-06    CP:  9.90D-01  1.21D+00  1.12D+00  1.46D+00  1.55D+00
                    CP:  1.65D+00  1.44D+00
 FoF2E:  PMaxA= 8.94D-05S
 Calling FoFJK with Acc= 0.00D+00 ICntrl=       0.
 FoF2E:  FMaxA= 1.44D-04S
 ChkPGP:  NMat=1 NMatS=1 NMatT=0
 EA= 0.932543747058E-08  0.00000000000      0.00000000000      0.00000000000    
 EB= 0.932543747058E-08  0.00000000000      0.00000000000      0.00000000000    
 ETotA= 0.932543747058E-08 ETotB= 0.932543747058E-08
 1/2 <PG(P)>=           0.000000009325
 IMat=  1 1/2 <PG(P)>=         841.979074180018
 IMat=  1 EOne=-0.178189489596D+04 ETwo= 0.841979074180D+03 Energy=-0.939915821779D+03
 1/2 <PG(P)>=         841.979074180018
 E= -184.281383053618     Delta-E=       -0.000002024714 Rises=F Damp=F
 DIIS: error= 1.42D-05 at cycle   8 NSaved=   8.
 B matrix at iteration          8
                 1             2             3             4             5 
      1   0.000000D+00 -0.100000D+01 -0.100000D+01 -0.100000D+01 -0.100000D+01
      2  -0.100000D+01 -0.304683D+00 -0.460571D-01 -0.185787D-01 -0.108832D-02
      3  -0.100000D+01 -0.460571D-01 -0.237499D-01  0.110443D-02 -0.872972D-03
      4  -0.100000D+01 -0.185787D-01  0.110443D-02 -0.332883D-02 -0.108018D-03
      5  -0.100000D+01 -0.108832D-02 -0.872972D-03 -0.108018D-03 -0.131203D-03
      6  -0.100000D+01 -0.573016D-03  0.422062D-04 -0.195727D-03 -0.157471D-04
      7  -0.100000D+01 -0.181579D-03  0.549718D-04 -0.528732D-04 -0.655999D-05
      8  -0.100000D+01 -0.189627D-04  0.155177D-04 -0.117689D-04 -0.338514D-07
      9  -0.100000D+01 -0.316712D-05  0.449063D-05 -0.264808D-05  0.385630D-06
                 6             7             8             9 
      1  -0.100000D+01 -0.100000D+01 -0.100000D+01 -0.100000D+01
      2  -0.573016D-03 -0.181579D-03 -0.189627D-04 -0.316712D-05
      3   0.422062D-04  0.549718D-04  0.155177D-04  0.449063D-05
      4  -0.195727D-03 -0.528732D-04 -0.117689D-04 -0.264808D-05
      5  -0.157471D-04 -0.655999D-05 -0.338514D-07  0.385630D-06
      6  -0.248908D-04 -0.501348D-05 -0.236929D-05 -0.415705D-06
      7  -0.501348D-05 -0.249584D-05 -0.617527D-06 -0.119573D-06
      8  -0.236929D-05 -0.617527D-06 -0.398896D-06 -0.755137D-07
      9  -0.415705D-06 -0.119573D-06 -0.755137D-07 -0.308097D-07
 Tr matrix at iteration          8
                 1             2             3             4             5 
      1  -0.184281D+03  0.000000D+00  0.000000D+00  0.000000D+00  0.000000D+00
      2   0.000000D+00 -0.489709D+02 -0.492959D+02 -0.492698D+02 -0.492637D+02
      3   0.000000D+00 -0.484466D+02 -0.488737D+02 -0.488970D+02 -0.488940D+02
      4   0.000000D+00 -0.484961D+02 -0.489725D+02 -0.489999D+02 -0.490033D+02
      5   0.000000D+00 -0.484544D+02 -0.489340D+02 -0.489678D+02 -0.489710D+02
      6   0.000000D+00 -0.484522D+02 -0.489350D+02 -0.489697D+02 -0.489735D+02
      7   0.100000D+01 -0.484471D+02 -0.489306D+02 -0.489658D+02 -0.489697D+02
      8   0.000000D+00 -0.484454D+02 -0.489290D+02 -0.489643D+02 -0.489683D+02
      9   0.000000D+00 -0.484447D+02 -0.489284D+02 -0.489637D+02 -0.489677D+02
                 6             7             8             9 
      1   0.000000D+00  0.000000D+00  0.000000D+00  0.000000D+00
      2  -0.492591D+02 -0.492578D+02 -0.492574D+02 -0.492573D+02
      3  -0.488927D+02 -0.488920D+02 -0.488918D+02 -0.488917D+02
      4  -0.490029D+02 -0.490027D+02 -0.490026D+02 -0.490026D+02
      5  -0.489712D+02 -0.489711D+02 -0.489711D+02 -0.489710D+02
      6  -0.489739D+02 -0.489740D+02 -0.489740D+02 -0.489739D+02
      7  -0.489703D+02 -0.489703D+02 -0.489703D+02 -0.489703D+02
      8  -0.489689D+02 -0.489690D+02 -0.489690D+02 -0.489690D+02
      9  -0.489683D+02 -0.489684D+02 -0.489684D+02 -0.489684D+02
 BE matrix at iteration          8
                 1             2             3             4             5 
      1   0.000000D+00 -0.100000D+01 -0.100000D+01 -0.100000D+01 -0.100000D+01
      2  -0.100000D+01  0.000000D+00 -0.102114D+00 -0.205038D+00 -0.223850D+00
      3  -0.100000D+01 -0.102114D+00  0.000000D+00 -0.411458D-02 -0.166617D-01
      4  -0.100000D+01 -0.205038D+00 -0.411458D-02  0.000000D+00  0.236602D-03
      5  -0.100000D+01 -0.223850D+00 -0.166617D-01  0.236602D-03  0.000000D+00
      6  -0.100000D+01 -0.233605D+00 -0.199275D-01 -0.127083D-02 -0.214581D-03
      7  -0.100000D+01 -0.236342D+00 -0.213810D-01 -0.175261D-02 -0.462236D-03
      8  -0.100000D+01 -0.237073D+00 -0.218523D-01 -0.195457D-02 -0.573909D-03
      9  -0.100000D+01 -0.237255D+00 -0.219835D-01 -0.202669D-02 -0.619454D-03
                 6             7             8             9 
      1  -0.100000D+01 -0.100000D+01 -0.100000D+01 -0.100000D+01
      2  -0.233605D+00 -0.236342D+00 -0.237073D+00 -0.237255D+00
      3  -0.199275D-01 -0.213810D-01 -0.218523D-01 -0.219835D-01
      4  -0.127083D-02 -0.175261D-02 -0.195457D-02 -0.202669D-02
      5  -0.214581D-03 -0.462236D-03 -0.573909D-03 -0.619454D-03
      6   0.000000D+00 -0.335934D-04 -0.753371D-04 -0.955509D-04
      7  -0.335934D-04  0.000000D+00 -0.772737D-05 -0.163230D-04
      8  -0.753371D-04 -0.772737D-05  0.000000D+00 -0.156766D-05
      9  -0.955509D-04 -0.163230D-04 -0.156766D-05  0.000000D+00
 NSaved= 8 IEnMin= 8 EnMin= -184.281383053618     IErMin= 8 ErrMin= 1.42D-05
 ErrMax= 1.42D-05  0.00D+00 EMaxC= 1.00D-01 BMatC= 3.08D-08 BMatP= 3.99D-07
 IDIUse=1 WtCom= 1.00D+00 WtEn= 0.00D+00
 Inv2:  IOpt= 1 Iter= 1 AM= 2.93D-08 Conv= 1.00D-12.
 Inv2:  IOpt= 1 Iter= 2 AM= 4.99D-23 Conv= 1.00D-12.
 Coeff-Com:  0.228D-03-0.981D-03-0.143D-02 0.131D-01-0.311D-02-0.710D-01
 Coeff-Com: -0.467D-01 0.111D+01
 Coeff-En:   0.000D+00 0.000D+00 0.000D+00 0.000D+00 0.000D+00 0.000D+00
 Coeff-En:   0.000D+00 0.000D+00
 Coeff:      0.228D-03-0.981D-03-0.143D-02 0.131D-01-0.311D-02-0.710D-01
 Coeff:     -0.467D-01 0.111D+01
 NOrbs=   111 LenY=   104817759 NE2=      944304 LScr= 7
 RMSDP=5.95D-06 MaxDP=1.09D-04 DE=-2.02D-06 OVMax= 0.00D+00

 Cycle   9  Pass 1  IDiag  1:
 One-electron energy=-0.178189505848D+04
 RMSU=  2.32D-06    CP:  9.90D-01  1.21D+00  1.12D+00  1.46D+00  1.56D+00
                    CP:  1.70D+00  1.63D+00  1.30D+00
 FoF2E:  PMaxA= 5.00D-05S
 Calling FoFJK with Acc= 0.00D+00 ICntrl=       0.
 FoF2E:  FMaxA= 8.08D-05S
 ChkPGP:  NMat=1 NMatS=1 NMatT=0
 EA= 0.531610915654E-08  0.00000000000      0.00000000000      0.00000000000    
 EB= 0.531610915654E-08  0.00000000000      0.00000000000      0.00000000000    
 ETotA= 0.531610915654E-08 ETotB= 0.531610915654E-08
 1/2 <PG(P)>=           0.000000005316
 IMat=  1 1/2 <PG(P)>=         841.979236534399
 IMat=  1 EOne=-0.178189505848D+04 ETwo= 0.841979236534D+03 Energy=-0.939915821946D+03
 1/2 <PG(P)>=         841.979236534399
 E= -184.281383220754     Delta-E=       -0.000000167135 Rises=F Damp=F
 DIIS: error= 5.68D-06 at cycle   9 NSaved=   9.
 B matrix at iteration          9
                 1             2             3             4             5 
      1   0.000000D+00 -0.100000D+01 -0.100000D+01 -0.100000D+01 -0.100000D+01
      2  -0.100000D+01 -0.304683D+00 -0.460571D-01 -0.185787D-01 -0.108832D-02
      3  -0.100000D+01 -0.460571D-01 -0.237499D-01  0.110443D-02 -0.872972D-03
      4  -0.100000D+01 -0.185787D-01  0.110443D-02 -0.332883D-02 -0.108018D-03
      5  -0.100000D+01 -0.108832D-02 -0.872972D-03 -0.108018D-03 -0.131203D-03
      6  -0.100000D+01 -0.573016D-03  0.422062D-04 -0.195727D-03 -0.157471D-04
      7  -0.100000D+01 -0.181579D-03  0.549718D-04 -0.528732D-04 -0.655999D-05
      8  -0.100000D+01 -0.189627D-04  0.155177D-04 -0.117689D-04 -0.338514D-07
      9  -0.100000D+01 -0.316712D-05  0.449063D-05 -0.264808D-05  0.385630D-06
     10  -0.100000D+01 -0.480221D-05  0.193700D-05 -0.153132D-05  0.121656D-06
                 6             7             8             9            10 
      1  -0.100000D+01 -0.100000D+01 -0.100000D+01 -0.100000D+01 -0.100000D+01
      2  -0.573016D-03 -0.181579D-03 -0.189627D-04 -0.316712D-05 -0.480221D-05
      3   0.422062D-04  0.549718D-04  0.155177D-04  0.449063D-05  0.193700D-05
      4  -0.195727D-03 -0.528732D-04 -0.117689D-04 -0.264808D-05 -0.153132D-05
      5  -0.157471D-04 -0.655999D-05 -0.338514D-07  0.385630D-06  0.121656D-06
      6  -0.248908D-04 -0.501348D-05 -0.236929D-05 -0.415705D-06 -0.168061D-06
      7  -0.501348D-05 -0.249584D-05 -0.617527D-06 -0.119573D-06 -0.360484D-07
      8  -0.236929D-05 -0.617527D-06 -0.398896D-06 -0.755137D-07 -0.331707D-07
      9  -0.415705D-06 -0.119573D-06 -0.755137D-07 -0.308097D-07 -0.829724D-08
     10  -0.168061D-06 -0.360484D-07 -0.331707D-07 -0.829724D-08 -0.576462D-08
 Tr matrix at iteration          9
                 1             2             3             4             5 
      1  -0.184281D+03  0.000000D+00  0.000000D+00  0.000000D+00  0.000000D+00
      2   0.000000D+00 -0.489709D+02 -0.492959D+02 -0.492698D+02 -0.492637D+02
      3   0.000000D+00 -0.484466D+02 -0.488737D+02 -0.488970D+02 -0.488940D+02
      4   0.000000D+00 -0.484961D+02 -0.489725D+02 -0.489999D+02 -0.490033D+02
      5   0.000000D+00 -0.484544D+02 -0.489340D+02 -0.489678D+02 -0.489710D+02
      6   0.000000D+00 -0.484522D+02 -0.489350D+02 -0.489697D+02 -0.489735D+02
      7   0.100000D+01 -0.484471D+02 -0.489306D+02 -0.489658D+02 -0.489697D+02
      8   0.000000D+00 -0.484454D+02 -0.489290D+02 -0.489643D+02 -0.489683D+02
      9   0.000000D+00 -0.484447D+02 -0.489284D+02 -0.489637D+02 -0.489677D+02
     10   0.000000D+00 -0.484447D+02 -0.489283D+02 -0.489636D+02 -0.489676D+02
                 6             7             8             9            10 
      1   0.000000D+00  0.000000D+00  0.000000D+00  0.000000D+00  0.000000D+00
      2  -0.492591D+02 -0.492578D+02 -0.492574D+02 -0.492573D+02 -0.492573D+02
      3  -0.488927D+02 -0.488920D+02 -0.488918D+02 -0.488917D+02 -0.488917D+02
      4  -0.490029D+02 -0.490027D+02 -0.490026D+02 -0.490026D+02 -0.490026D+02
      5  -0.489712D+02 -0.489711D+02 -0.489711D+02 -0.489710D+02 -0.489710D+02
      6  -0.489739D+02 -0.489740D+02 -0.489740D+02 -0.489739D+02 -0.489739D+02
      7  -0.489703D+02 -0.489703D+02 -0.489703D+02 -0.489703D+02 -0.489703D+02
      8  -0.489689D+02 -0.489690D+02 -0.489690D+02 -0.489690D+02 -0.489690D+02
      9  -0.489683D+02 -0.489684D+02 -0.489684D+02 -0.489684D+02 -0.489684D+02
     10  -0.489682D+02 -0.489683D+02 -0.489683D+02 -0.489683D+02 -0.489683D+02
 BE matrix at iteration          9
                 1             2             3             4             5 
      1   0.000000D+00 -0.100000D+01 -0.100000D+01 -0.100000D+01 -0.100000D+01
      2  -0.100000D+01  0.000000D+00 -0.102114D+00 -0.205038D+00 -0.223850D+00
      3  -0.100000D+01 -0.102114D+00  0.000000D+00 -0.411458D-02 -0.166617D-01
      4  -0.100000D+01 -0.205038D+00 -0.411458D-02  0.000000D+00  0.236602D-03
      5  -0.100000D+01 -0.223850D+00 -0.166617D-01  0.236602D-03  0.000000D+00
      6  -0.100000D+01 -0.233605D+00 -0.199275D-01 -0.127083D-02 -0.214581D-03
      7  -0.100000D+01 -0.236342D+00 -0.213810D-01 -0.175261D-02 -0.462236D-03
      8  -0.100000D+01 -0.237073D+00 -0.218523D-01 -0.195457D-02 -0.573909D-03
      9  -0.100000D+01 -0.237255D+00 -0.219835D-01 -0.202669D-02 -0.619454D-03
     10  -0.100000D+01 -0.237267D+00 -0.219972D-01 -0.203638D-02 -0.626865D-03
                 6             7             8             9            10 
      1  -0.100000D+01 -0.100000D+01 -0.100000D+01 -0.100000D+01 -0.100000D+01
      2  -0.233605D+00 -0.236342D+00 -0.237073D+00 -0.237255D+00 -0.237267D+00
      3  -0.199275D-01 -0.213810D-01 -0.218523D-01 -0.219835D-01 -0.219972D-01
      4  -0.127083D-02 -0.175261D-02 -0.195457D-02 -0.202669D-02 -0.203638D-02
      5  -0.214581D-03 -0.462236D-03 -0.573909D-03 -0.619454D-03 -0.626865D-03
      6   0.000000D+00 -0.335934D-04 -0.753371D-04 -0.955509D-04 -0.996391D-04
      7  -0.335934D-04  0.000000D+00 -0.772737D-05 -0.163230D-04 -0.184863D-04
      8  -0.753371D-04 -0.772737D-05  0.000000D+00 -0.156766D-05 -0.241128D-05
      9  -0.955509D-04 -0.163230D-04 -0.156766D-05  0.000000D+00 -0.985288D-07
     10  -0.996391D-04 -0.184863D-04 -0.241128D-05 -0.985288D-07  0.000000D+00
 NSaved= 9 IEnMin= 9 EnMin= -184.281383220754     IErMin= 9 ErrMin= 5.68D-06
 ErrMax= 5.68D-06  0.00D+00 EMaxC= 1.00D-01 BMatC= 5.76D-09 BMatP= 3.08D-08
 IDIUse=1 WtCom= 1.00D+00 WtEn= 0.00D+00
 Inv2:  IOpt= 1 Iter= 1 AM= 9.20D-08 Conv= 1.00D-12.
 Inv2:  IOpt= 1 Iter= 2 AM= 3.67D-22 Conv= 1.00D-12.
 Coeff-Com:  0.891D-04-0.204D-03-0.182D-02 0.734D-04 0.175D-01 0.228D-01
 Coeff-Com: -0.192D+00 0.314D-01 0.112D+01
 Coeff-En:   0.000D+00 0.000D+00 0.000D+00 0.000D+00 0.000D+00 0.000D+00
 Coeff-En:   0.000D+00 0.000D+00 0.000D+00
 Coeff:      0.891D-04-0.204D-03-0.182D-02 0.734D-04 0.175D-01 0.228D-01
 Coeff:     -0.192D+00 0.314D-01 0.112D+01
 NOrbs=   111 LenY=   104817759 NE2=      944304 LScr= 7
 RMSDP=2.56D-06 MaxDP=4.63D-05 DE=-1.67D-07 OVMax= 0.00D+00

 Cycle  10  Pass 1  IDiag  1:
 One-electron energy=-0.178189508504D+04
 RMSU=  7.13D-07    CP:  9.90D-01  1.21D+00  1.12D+00  1.46D+00  1.57D+00
                    CP:  1.71D+00  1.70D+00  1.57D+00  1.34D+00
 FoF2E:  PMaxA= 1.11D-05S
 Calling FoFJK with Acc= 0.00D+00 ICntrl=       0.
 FoF2E:  FMaxA= 1.29D-05S
 ChkPGP:  NMat=1 NMatS=1 NMatT=0
 EA= 0.341493508623E-09  0.00000000000      0.00000000000      0.00000000000    
 EB= 0.341493508623E-09  0.00000000000      0.00000000000      0.00000000000    
 ETotA= 0.341493508623E-09 ETotB= 0.341493508623E-09
 1/2 <PG(P)>=           0.000000000341
 IMat=  1 1/2 <PG(P)>=         841.979263068868
 IMat=  1 EOne=-0.178189508504D+04 ETwo= 0.841979263069D+03 Energy=-0.939915821975D+03
 1/2 <PG(P)>=         841.979263068868
 E= -184.281383249684     Delta-E=       -0.000000028930 Rises=F Damp=F
 DIIS: error= 2.89D-06 at cycle  10 NSaved=  10.
 B matrix at iteration         10
                 1             2             3             4             5 
      1   0.000000D+00 -0.100000D+01 -0.100000D+01 -0.100000D+01 -0.100000D+01
      2  -0.100000D+01 -0.304683D+00 -0.460571D-01 -0.185787D-01 -0.108832D-02
      3  -0.100000D+01 -0.460571D-01 -0.237499D-01  0.110443D-02 -0.872972D-03
      4  -0.100000D+01 -0.185787D-01  0.110443D-02 -0.332883D-02 -0.108018D-03
      5  -0.100000D+01 -0.108832D-02 -0.872972D-03 -0.108018D-03 -0.131203D-03
      6  -0.100000D+01 -0.573016D-03  0.422062D-04 -0.195727D-03 -0.157471D-04
      7  -0.100000D+01 -0.181579D-03  0.549718D-04 -0.528732D-04 -0.655999D-05
      8  -0.100000D+01 -0.189627D-04  0.155177D-04 -0.117689D-04 -0.338514D-07
      9  -0.100000D+01 -0.316712D-05  0.449063D-05 -0.264808D-05  0.385630D-06
     10  -0.100000D+01 -0.480221D-05  0.193700D-05 -0.153132D-05  0.121656D-06
     11  -0.100000D+01 -0.129828D-05  0.608222D-06 -0.450826D-06  0.501258D-07
                 6             7             8             9            10 
      1  -0.100000D+01 -0.100000D+01 -0.100000D+01 -0.100000D+01 -0.100000D+01
      2  -0.573016D-03 -0.181579D-03 -0.189627D-04 -0.316712D-05 -0.480221D-05
      3   0.422062D-04  0.549718D-04  0.155177D-04  0.449063D-05  0.193700D-05
      4  -0.195727D-03 -0.528732D-04 -0.117689D-04 -0.264808D-05 -0.153132D-05
      5  -0.157471D-04 -0.655999D-05 -0.338514D-07  0.385630D-06  0.121656D-06
      6  -0.248908D-04 -0.501348D-05 -0.236929D-05 -0.415705D-06 -0.168061D-06
      7  -0.501348D-05 -0.249584D-05 -0.617527D-06 -0.119573D-06 -0.360484D-07
      8  -0.236929D-05 -0.617527D-06 -0.398896D-06 -0.755137D-07 -0.331707D-07
      9  -0.415705D-06 -0.119573D-06 -0.755137D-07 -0.308097D-07 -0.829724D-08
     10  -0.168061D-06 -0.360484D-07 -0.331707D-07 -0.829724D-08 -0.576462D-08
     11  -0.430055D-07 -0.599757D-08 -0.663299D-08 -0.307673D-08 -0.123783D-08
                11 
      1  -0.100000D+01
      2  -0.129828D-05
      3   0.608222D-06
      4  -0.450826D-06
      5   0.501258D-07
      6  -0.430055D-07
      7  -0.599757D-08
      8  -0.663299D-08
      9  -0.307673D-08
     10  -0.123783D-08
     11  -0.613480D-09
 Tr matrix at iteration         10
                 1             2             3             4             5 
      1  -0.184281D+03  0.000000D+00  0.000000D+00  0.000000D+00  0.000000D+00
      2   0.000000D+00 -0.489709D+02 -0.492959D+02 -0.492698D+02 -0.492637D+02
      3   0.000000D+00 -0.484466D+02 -0.488737D+02 -0.488970D+02 -0.488940D+02
      4   0.000000D+00 -0.484961D+02 -0.489725D+02 -0.489999D+02 -0.490033D+02
      5   0.000000D+00 -0.484544D+02 -0.489340D+02 -0.489678D+02 -0.489710D+02
      6   0.000000D+00 -0.484522D+02 -0.489350D+02 -0.489697D+02 -0.489735D+02
      7   0.100000D+01 -0.484471D+02 -0.489306D+02 -0.489658D+02 -0.489697D+02
      8   0.000000D+00 -0.484454D+02 -0.489290D+02 -0.489643D+02 -0.489683D+02
      9   0.000000D+00 -0.484447D+02 -0.489284D+02 -0.489637D+02 -0.489677D+02
     10   0.000000D+00 -0.484447D+02 -0.489283D+02 -0.489636D+02 -0.489676D+02
     11   0.000000D+00 -0.484446D+02 -0.489283D+02 -0.489636D+02 -0.489676D+02
                 6             7             8             9            10 
      1   0.000000D+00  0.000000D+00  0.000000D+00  0.000000D+00  0.000000D+00
      2  -0.492591D+02 -0.492578D+02 -0.492574D+02 -0.492573D+02 -0.492573D+02
      3  -0.488927D+02 -0.488920D+02 -0.488918D+02 -0.488917D+02 -0.488917D+02
      4  -0.490029D+02 -0.490027D+02 -0.490026D+02 -0.490026D+02 -0.490026D+02
      5  -0.489712D+02 -0.489711D+02 -0.489711D+02 -0.489710D+02 -0.489710D+02
      6  -0.489739D+02 -0.489740D+02 -0.489740D+02 -0.489739D+02 -0.489739D+02
      7  -0.489703D+02 -0.489703D+02 -0.489703D+02 -0.489703D+02 -0.489703D+02
      8  -0.489689D+02 -0.489690D+02 -0.489690D+02 -0.489690D+02 -0.489690D+02
      9  -0.489683D+02 -0.489684D+02 -0.489684D+02 -0.489684D+02 -0.489684D+02
     10  -0.489682D+02 -0.489683D+02 -0.489683D+02 -0.489683D+02 -0.489683D+02
     11  -0.489682D+02 -0.489683D+02 -0.489683D+02 -0.489683D+02 -0.489683D+02
                11 
      1   0.000000D+00
      2  -0.492573D+02
      3  -0.488917D+02
      4  -0.490026D+02
      5  -0.489710D+02
      6  -0.489739D+02
      7  -0.489703D+02
      8  -0.489690D+02
      9  -0.489684D+02
     10  -0.489683D+02
     11  -0.489683D+02
 BE matrix at iteration         10
                 1             2             3             4             5 
      1   0.000000D+00 -0.100000D+01 -0.100000D+01 -0.100000D+01 -0.100000D+01
      2  -0.100000D+01  0.000000D+00 -0.102114D+00 -0.205038D+00 -0.223850D+00
      3  -0.100000D+01 -0.102114D+00  0.000000D+00 -0.411458D-02 -0.166617D-01
      4  -0.100000D+01 -0.205038D+00 -0.411458D-02  0.000000D+00  0.236602D-03
      5  -0.100000D+01 -0.223850D+00 -0.166617D-01  0.236602D-03  0.000000D+00
      6  -0.100000D+01 -0.233605D+00 -0.199275D-01 -0.127083D-02 -0.214581D-03
      7  -0.100000D+01 -0.236342D+00 -0.213810D-01 -0.175261D-02 -0.462236D-03
      8  -0.100000D+01 -0.237073D+00 -0.218523D-01 -0.195457D-02 -0.573909D-03
      9  -0.100000D+01 -0.237255D+00 -0.219835D-01 -0.202669D-02 -0.619454D-03
     10  -0.100000D+01 -0.237267D+00 -0.219972D-01 -0.203638D-02 -0.626865D-03
     11  -0.100000D+01 -0.237273D+00 -0.220026D-01 -0.203931D-02 -0.629345D-03
                 6             7             8             9            10 
      1  -0.100000D+01 -0.100000D+01 -0.100000D+01 -0.100000D+01 -0.100000D+01
      2  -0.233605D+00 -0.236342D+00 -0.237073D+00 -0.237255D+00 -0.237267D+00
      3  -0.199275D-01 -0.213810D-01 -0.218523D-01 -0.219835D-01 -0.219972D-01
      4  -0.127083D-02 -0.175261D-02 -0.195457D-02 -0.202669D-02 -0.203638D-02
      5  -0.214581D-03 -0.462236D-03 -0.573909D-03 -0.619454D-03 -0.626865D-03
      6   0.000000D+00 -0.335934D-04 -0.753371D-04 -0.955509D-04 -0.996391D-04
      7  -0.335934D-04  0.000000D+00 -0.772737D-05 -0.163230D-04 -0.184863D-04
      8  -0.753371D-04 -0.772737D-05  0.000000D+00 -0.156766D-05 -0.241128D-05
      9  -0.955509D-04 -0.163230D-04 -0.156766D-05  0.000000D+00 -0.985288D-07
     10  -0.996391D-04 -0.184863D-04 -0.241128D-05 -0.985288D-07  0.000000D+00
     11  -0.101068D-03 -0.193312D-04 -0.278507D-05 -0.209614D-06 -0.193236D-07
                11 
      1  -0.100000D+01
      2  -0.237273D+00
      3  -0.220026D-01
      4  -0.203931D-02
      5  -0.629345D-03
      6  -0.101068D-03
      7  -0.193312D-04
      8  -0.278507D-05
      9  -0.209614D-06
     10  -0.193236D-07
     11   0.000000D+00
 NSaved=10 IEnMin=10 EnMin= -184.281383249684     IErMin=10 ErrMin= 2.89D-06
 ErrMax= 2.89D-06  0.00D+00 EMaxC= 1.00D-01 BMatC= 6.13D-10 BMatP= 5.76D-09
 IDIUse=1 WtCom= 1.00D+00 WtEn= 0.00D+00
 Inv2:  IOpt= 1 Iter= 1 AM= 8.32D-07 Conv= 1.00D-12.
 Inv2:  IOpt= 1 Iter= 2 AM= 4.38D-22 Conv= 1.00D-12.
 Coeff-Com: -0.239D-04 0.118D-03 0.111D-04-0.113D-02-0.615D-03 0.128D-01
 Coeff-Com: -0.168D-02-0.130D+00-0.348D-01 0.116D+01
 Coeff-En:   0.000D+00 0.000D+00 0.000D+00 0.000D+00 0.000D+00 0.000D+00
 Coeff-En:   0.000D+00 0.000D+00 0.000D+00 0.000D+00
 Coeff:     -0.239D-04 0.118D-03 0.111D-04-0.113D-02-0.615D-03 0.128D-01
 Coeff:     -0.168D-02-0.130D+00-0.348D-01 0.116D+01
 NOrbs=   111 LenY=   104817759 NE2=      944304 LScr= 7
 RMSDP=9.02D-07 MaxDP=1.63D-05 DE=-2.89D-08 OVMax= 0.00D+00

 Cycle  11  Pass 1  IDiag  1:
 One-electron energy=-0.178189509125D+04
 RMSU=  2.68D-07    CP:  9.90D-01  1.21D+00  1.12D+00  1.46D+00  1.57D+00
                    CP:  1.72D+00  1.72D+00  1.64D+00  1.57D+00  1.30D+00
 FoF2E:  PMaxA= 3.69D-06S
 Calling FoFJK with Acc= 0.00D+00 ICntrl=       0.
 FoF2E:  FMaxA= 6.38D-06S
 ChkPGP:  NMat=1 NMatS=1 NMatT=0
 EA= 0.181199186602E-10  0.00000000000      0.00000000000      0.00000000000    
 EB= 0.181199186602E-10  0.00000000000      0.00000000000      0.00000000000    
 ETotA= 0.181199186602E-10 ETotB= 0.181199186602E-10
 1/2 <PG(P)>=           0.000000000018
 IMat=  1 1/2 <PG(P)>=         841.979269274516
 IMat=  1 EOne=-0.178189509125D+04 ETwo= 0.841979269275D+03 Energy=-0.939915821978D+03
 1/2 <PG(P)>=         841.979269274516
 E= -184.281383252985     Delta-E=       -0.000000003301 Rises=F Damp=F
 DIIS: error= 6.41D-07 at cycle  11 NSaved=  11.
 B matrix at iteration         11
                 1             2             3             4             5 
      1   0.000000D+00 -0.100000D+01 -0.100000D+01 -0.100000D+01 -0.100000D+01
      2  -0.100000D+01 -0.304683D+00 -0.460571D-01 -0.185787D-01 -0.108832D-02
      3  -0.100000D+01 -0.460571D-01 -0.237499D-01  0.110443D-02 -0.872972D-03
      4  -0.100000D+01 -0.185787D-01  0.110443D-02 -0.332883D-02 -0.108018D-03
      5  -0.100000D+01 -0.108832D-02 -0.872972D-03 -0.108018D-03 -0.131203D-03
      6  -0.100000D+01 -0.573016D-03  0.422062D-04 -0.195727D-03 -0.157471D-04
      7  -0.100000D+01 -0.181579D-03  0.549718D-04 -0.528732D-04 -0.655999D-05
      8  -0.100000D+01 -0.189627D-04  0.155177D-04 -0.117689D-04 -0.338514D-07
      9  -0.100000D+01 -0.316712D-05  0.449063D-05 -0.264808D-05  0.385630D-06
     10  -0.100000D+01 -0.480221D-05  0.193700D-05 -0.153132D-05  0.121656D-06
     11  -0.100000D+01 -0.129828D-05  0.608222D-06 -0.450826D-06  0.501258D-07
     12  -0.100000D+01 -0.348429D-07  0.139773D-06 -0.850059D-07  0.985996D-08
                 6             7             8             9            10 
      1  -0.100000D+01 -0.100000D+01 -0.100000D+01 -0.100000D+01 -0.100000D+01
      2  -0.573016D-03 -0.181579D-03 -0.189627D-04 -0.316712D-05 -0.480221D-05
      3   0.422062D-04  0.549718D-04  0.155177D-04  0.449063D-05  0.193700D-05
      4  -0.195727D-03 -0.528732D-04 -0.117689D-04 -0.264808D-05 -0.153132D-05
      5  -0.157471D-04 -0.655999D-05 -0.338514D-07  0.385630D-06  0.121656D-06
      6  -0.248908D-04 -0.501348D-05 -0.236929D-05 -0.415705D-06 -0.168061D-06
      7  -0.501348D-05 -0.249584D-05 -0.617527D-06 -0.119573D-06 -0.360484D-07
      8  -0.236929D-05 -0.617527D-06 -0.398896D-06 -0.755137D-07 -0.331707D-07
      9  -0.415705D-06 -0.119573D-06 -0.755137D-07 -0.308097D-07 -0.829724D-08
     10  -0.168061D-06 -0.360484D-07 -0.331707D-07 -0.829724D-08 -0.576462D-08
     11  -0.430055D-07 -0.599757D-08 -0.663299D-08 -0.307673D-08 -0.123783D-08
     12  -0.121030D-07 -0.134312D-08 -0.157970D-08 -0.405468D-09 -0.366042D-09
                11            12 
      1  -0.100000D+01 -0.100000D+01
      2  -0.129828D-05 -0.348429D-07
      3   0.608222D-06  0.139773D-06
      4  -0.450826D-06 -0.850059D-07
      5   0.501258D-07  0.985996D-08
      6  -0.430055D-07 -0.121030D-07
      7  -0.599757D-08 -0.134312D-08
      8  -0.663299D-08 -0.157970D-08
      9  -0.307673D-08 -0.405468D-09
     10  -0.123783D-08 -0.366042D-09
     11  -0.613480D-09 -0.976758D-10
     12  -0.976758D-10 -0.577753D-10
 Tr matrix at iteration         11
                 1             2             3             4             5 
      1  -0.184281D+03  0.000000D+00  0.000000D+00  0.000000D+00  0.000000D+00
      2   0.000000D+00 -0.489709D+02 -0.492959D+02 -0.492698D+02 -0.492637D+02
      3   0.000000D+00 -0.484466D+02 -0.488737D+02 -0.488970D+02 -0.488940D+02
      4   0.000000D+00 -0.484961D+02 -0.489725D+02 -0.489999D+02 -0.490033D+02
      5   0.000000D+00 -0.484544D+02 -0.489340D+02 -0.489678D+02 -0.489710D+02
      6   0.000000D+00 -0.484522D+02 -0.489350D+02 -0.489697D+02 -0.489735D+02
      7   0.100000D+01 -0.484471D+02 -0.489306D+02 -0.489658D+02 -0.489697D+02
      8   0.000000D+00 -0.484454D+02 -0.489290D+02 -0.489643D+02 -0.489683D+02
      9   0.000000D+00 -0.484447D+02 -0.489284D+02 -0.489637D+02 -0.489677D+02
     10   0.000000D+00 -0.484447D+02 -0.489283D+02 -0.489636D+02 -0.489676D+02
     11   0.000000D+00 -0.484446D+02 -0.489283D+02 -0.489636D+02 -0.489676D+02
     12   0.000000D+00 -0.484446D+02 -0.489283D+02 -0.489636D+02 -0.489676D+02
                 6             7             8             9            10 
      1   0.000000D+00  0.000000D+00  0.000000D+00  0.000000D+00  0.000000D+00
      2  -0.492591D+02 -0.492578D+02 -0.492574D+02 -0.492573D+02 -0.492573D+02
      3  -0.488927D+02 -0.488920D+02 -0.488918D+02 -0.488917D+02 -0.488917D+02
      4  -0.490029D+02 -0.490027D+02 -0.490026D+02 -0.490026D+02 -0.490026D+02
      5  -0.489712D+02 -0.489711D+02 -0.489711D+02 -0.489710D+02 -0.489710D+02
      6  -0.489739D+02 -0.489740D+02 -0.489740D+02 -0.489739D+02 -0.489739D+02
      7  -0.489703D+02 -0.489703D+02 -0.489703D+02 -0.489703D+02 -0.489703D+02
      8  -0.489689D+02 -0.489690D+02 -0.489690D+02 -0.489690D+02 -0.489690D+02
      9  -0.489683D+02 -0.489684D+02 -0.489684D+02 -0.489684D+02 -0.489684D+02
     10  -0.489682D+02 -0.489683D+02 -0.489683D+02 -0.489683D+02 -0.489683D+02
     11  -0.489682D+02 -0.489683D+02 -0.489683D+02 -0.489683D+02 -0.489683D+02
     12  -0.489682D+02 -0.489683D+02 -0.489683D+02 -0.489683D+02 -0.489683D+02
                11            12 
      1   0.000000D+00  0.000000D+00
      2  -0.492573D+02 -0.492573D+02
      3  -0.488917D+02 -0.488917D+02
      4  -0.490026D+02 -0.490026D+02
      5  -0.489710D+02 -0.489710D+02
      6  -0.489739D+02 -0.489739D+02
      7  -0.489703D+02 -0.489703D+02
      8  -0.489690D+02 -0.489690D+02
      9  -0.489684D+02 -0.489684D+02
     10  -0.489683D+02 -0.489683D+02
     11  -0.489683D+02 -0.489683D+02
     12  -0.489683D+02 -0.489683D+02
 BE matrix at iteration         11
                 1             2             3             4             5 
      1   0.000000D+00 -0.100000D+01 -0.100000D+01 -0.100000D+01 -0.100000D+01
      2  -0.100000D+01  0.000000D+00 -0.102114D+00 -0.205038D+00 -0.223850D+00
      3  -0.100000D+01 -0.102114D+00  0.000000D+00 -0.411458D-02 -0.166617D-01
      4  -0.100000D+01 -0.205038D+00 -0.411458D-02  0.000000D+00  0.236602D-03
      5  -0.100000D+01 -0.223850D+00 -0.166617D-01  0.236602D-03  0.000000D+00
      6  -0.100000D+01 -0.233605D+00 -0.199275D-01 -0.127083D-02 -0.214581D-03
      7  -0.100000D+01 -0.236342D+00 -0.213810D-01 -0.175261D-02 -0.462236D-03
      8  -0.100000D+01 -0.237073D+00 -0.218523D-01 -0.195457D-02 -0.573909D-03
      9  -0.100000D+01 -0.237255D+00 -0.219835D-01 -0.202669D-02 -0.619454D-03
     10  -0.100000D+01 -0.237267D+00 -0.219972D-01 -0.203638D-02 -0.626865D-03
     11  -0.100000D+01 -0.237273D+00 -0.220026D-01 -0.203931D-02 -0.629345D-03
     12  -0.100000D+01 -0.237273D+00 -0.220037D-01 -0.203971D-02 -0.629854D-03
                 6             7             8             9            10 
      1  -0.100000D+01 -0.100000D+01 -0.100000D+01 -0.100000D+01 -0.100000D+01
      2  -0.233605D+00 -0.236342D+00 -0.237073D+00 -0.237255D+00 -0.237267D+00
      3  -0.199275D-01 -0.213810D-01 -0.218523D-01 -0.219835D-01 -0.219972D-01
      4  -0.127083D-02 -0.175261D-02 -0.195457D-02 -0.202669D-02 -0.203638D-02
      5  -0.214581D-03 -0.462236D-03 -0.573909D-03 -0.619454D-03 -0.626865D-03
      6   0.000000D+00 -0.335934D-04 -0.753371D-04 -0.955509D-04 -0.996391D-04
      7  -0.335934D-04  0.000000D+00 -0.772737D-05 -0.163230D-04 -0.184863D-04
      8  -0.753371D-04 -0.772737D-05  0.000000D+00 -0.156766D-05 -0.241128D-05
      9  -0.955509D-04 -0.163230D-04 -0.156766D-05  0.000000D+00 -0.985288D-07
     10  -0.996391D-04 -0.184863D-04 -0.241128D-05 -0.985288D-07  0.000000D+00
     11  -0.101068D-03 -0.193312D-04 -0.278507D-05 -0.209614D-06 -0.193236D-07
     12  -0.101387D-03 -0.195440D-04 -0.289643D-05 -0.251596D-06 -0.356875D-07
                11            12 
      1  -0.100000D+01 -0.100000D+01
      2  -0.237273D+00 -0.237273D+00
      3  -0.220026D-01 -0.220037D-01
      4  -0.203931D-02 -0.203971D-02
      5  -0.629345D-03 -0.629854D-03
      6  -0.101068D-03 -0.101387D-03
      7  -0.193312D-04 -0.195440D-04
      8  -0.278507D-05 -0.289643D-05
      9  -0.209614D-06 -0.251596D-06
     10  -0.193236D-07 -0.356875D-07
     11   0.000000D+00 -0.244719D-08
     12  -0.244719D-08  0.000000D+00
 NSaved=11 IEnMin=11 EnMin= -184.281383252985     IErMin=11 ErrMin= 6.41D-07
 ErrMax= 6.41D-07  0.00D+00 EMaxC= 1.00D-01 BMatC= 5.78D-11 BMatP= 6.13D-10
 IDIUse=1 WtCom= 1.00D+00 WtEn= 0.00D+00
 Inv2:  IOpt= 1 Iter= 1 AM= 8.23D-06 Conv= 1.00D-12.
 Inv2:  IOpt= 1 Iter= 2 AM= 1.98D-20 Conv= 1.00D-12.
 Coeff-Com: -0.757D-05 0.164D-04 0.182D-03 0.187D-03-0.250D-02-0.215D-02
 Coeff-Com:  0.192D-01 0.626D-02-0.133D+00 0.643D-02 0.111D+01
 Coeff-En:   0.000D+00 0.000D+00 0.000D+00 0.000D+00 0.000D+00 0.000D+00
 Coeff-En:   0.000D+00 0.000D+00 0.000D+00 0.000D+00 0.000D+00
 Coeff:     -0.757D-05 0.164D-04 0.182D-03 0.187D-03-0.250D-02-0.215D-02
 Coeff:      0.192D-01 0.626D-02-0.133D+00 0.643D-02 0.111D+01
 NOrbs=   111 LenY=   104817759 NE2=      944304 LScr= 7
 RMSDP=2.67D-07 MaxDP=5.30D-06 DE=-3.30D-09 OVMax= 0.00D+00

 Cycle  12  Pass 1  IDiag  1:
 One-electron energy=-0.178189509838D+04
 RMSU=  8.73D-08    CP:  9.90D-01  1.21D+00  1.12D+00  1.46D+00  1.57D+00
                    CP:  1.72D+00  1.73D+00  1.66D+00  1.62D+00  1.50D+00
                    CP:  1.34D+00
 FoF2E:  PMaxA= 1.38D-06S
 Calling FoFJK with Acc= 0.00D+00 ICntrl=       0.
 FoF2E:  FMaxA= 1.84D-06S
 ChkPGP:  NMat=1 NMatS=1 NMatT=0
 EA= 0.986986699919E-11  0.00000000000      0.00000000000      0.00000000000    
 EB= 0.986986699919E-11  0.00000000000      0.00000000000      0.00000000000    
 ETotA= 0.986986699919E-11 ETotB= 0.986986699919E-11
[...]
    21  C    0.000000   0.000000   0.000000   0.000000   0.000000   0.000000
    22  C    0.000000   0.000000   0.000000   0.000000   0.000000   0.000000
    23  C    0.000000   0.000000   0.000000   0.000000   0.000000   0.000000
    24  N    0.000000   0.000000   0.000000   0.000000   0.000000   0.000000
    25  C    0.000000   0.000000   0.000000   0.000000   0.000000   0.000000
    26  H    0.000000   0.000000   0.000000   0.000000   0.000000   0.000000
    27  H    0.000000   0.000000   0.000000   0.000000   0.000000   0.000000
    28  H    0.000000   0.000000   0.000000   0.000000   0.000000   0.000000
    29  H    0.000000   0.000000   0.000000   0.000000   0.000000   0.000000
    30  H    0.000000   0.000000   0.000000   0.000000   0.000000   0.000000
    31  H    0.000000   0.000000   0.000000   0.000000   0.000000   0.000000
    32  H    0.000000   0.000000   0.000000   0.000000   0.000000   0.000000
    33  H    0.000000   0.000000   0.000000   0.000000   0.000000   0.000000
    34  H    0.000000   0.000000   0.000000   0.000000   0.000000   0.000000
    35  H    0.000000   0.000000   0.000000   0.000000   0.000000   0.000000
    36  H    0.000000   0.000000   0.000000   0.000000   0.000000   0.000000
              19         20         21         22         23         24
     1  F    0.000000   0.000000   0.000000   0.000000   0.000000   0.000000
     2  C    0.000000   0.000000   0.000000   0.000000   0.000000   0.000000
     3  C    0.000000   0.000000   0.000000   0.000000   0.000000   0.000000
     4  C    0.000000   0.000000   0.000000   0.000000   0.000000   0.000000
     5  C    0.000000   0.000000   0.000000   0.000000   0.000000   0.000000
     6  C    0.000000   0.000000   0.000000   0.000000   0.000000   0.000000
     7  C    0.000000   0.000000   0.000000   0.000000   0.000000   0.000000
     8  C    0.000000   0.000000   0.000000   0.000000   0.000000   0.000000
     9  N    0.000000   0.000000   0.000000   0.000000   0.000000   0.000000
    10  O    0.000000   0.000000   0.000000   0.000000   0.000000   0.000000
    11  C    0.000000   0.000000   0.000000   0.000000   0.000000   0.000000
    12  C    0.000000   0.000000   0.000000   0.000000   0.000000   0.000000
    13  C    0.000000   0.000000   0.000000   0.000000   0.000000   0.000000
    14  C    0.000000   0.000000   0.000000   0.000000   0.000000   0.000000
    15  C    0.000000   0.000000   0.000000   0.000000   0.000000   0.000000
    16  C    0.000000   0.000000   0.000000   0.000000   0.000000   0.000000
    17  O    0.000000   0.000000   0.000000   0.000000   0.000000   0.000000
    18  C    0.000000   0.000000   0.000000   0.000000   0.000000   0.000000
    19  O    6.506818   0.000000   0.000000   0.000000   0.000000   0.000000
    20  C    0.000000   4.001512   0.000000   0.000000   0.000000   0.000000
    21  C    0.000000   0.000000   3.957783   0.000000   0.000000   0.000000
    22  C    0.000000   0.000000   0.000000   4.044210   0.000000   0.000000
    23  C    0.000000   0.000000   0.000000   0.000000   3.866135   0.000000
    24  N    0.000000   0.000000   0.000000   0.000000   0.000000   5.352332
    25  C    0.000000   0.000000   0.000000   0.000000   0.000000   0.000000
    26  H    0.000000   0.000000   0.000000   0.000000   0.000000   0.000000
    27  H    0.000000   0.000000   0.000000   0.000000   0.000000   0.000000
    28  H    0.000000   0.000000   0.000000   0.000000   0.000000   0.000000
    29  H    0.000000   0.000000   0.000000   0.000000   0.000000   0.000000
    30  H    0.000000   0.000000   0.000000   0.000000   0.000000   0.000000
    31  H    0.000000   0.000000   0.000000   0.000000   0.000000   0.000000
    32  H    0.000000   0.000000   0.000000   0.000000   0.000000   0.000000
    33  H    0.000000   0.000000   0.000000   0.000000   0.000000   0.000000
    34  H    0.000000   0.000000   0.000000   0.000000   0.000000   0.000000
    35  H    0.000000   0.000000   0.000000   0.000000   0.000000   0.000000
    36  H    0.000000   0.000000   0.000000   0.000000   0.000000   0.000000
              25         26         27         28         29         30
     1  F    0.000000   0.000000   0.000000   0.000000   0.000000   0.000000
     2  C    0.000000   0.000000   0.000000   0.000000   0.000000   0.000000
     3  C    0.000000   0.000000   0.000000   0.000000   0.000000   0.000000
     4  C    0.000000   0.000000   0.000000   0.000000   0.000000   0.000000
     5  C    0.000000   0.000000   0.000000   0.000000   0.000000   0.000000
     6  C    0.000000   0.000000   0.000000   0.000000   0.000000   0.000000
     7  C    0.000000   0.000000   0.000000   0.000000   0.000000   0.000000
     8  C    0.000000   0.000000   0.000000   0.000000   0.000000   0.000000
     9  N    0.000000   0.000000   0.000000   0.000000   0.000000   0.000000
    10  O    0.000000   0.000000   0.000000   0.000000   0.000000   0.000000
    11  C    0.000000   0.000000   0.000000   0.000000   0.000000   0.000000
    12  C    0.000000   0.000000   0.000000   0.000000   0.000000   0.000000
    13  C    0.000000   0.000000   0.000000   0.000000   0.000000   0.000000
    14  C    0.000000   0.000000   0.000000   0.000000   0.000000   0.000000
    15  C    0.000000   0.000000   0.000000   0.000000   0.000000   0.000000
    16  C    0.000000   0.000000   0.000000   0.000000   0.000000   0.000000
    17  O    0.000000   0.000000   0.000000   0.000000   0.000000   0.000000
    18  C    0.000000   0.000000   0.000000   0.000000   0.000000   0.000000
    19  O    0.000000   0.000000   0.000000   0.000000   0.000000   0.000000
    20  C    0.000000   0.000000   0.000000   0.000000   0.000000   0.000000
    21  C    0.000000   0.000000   0.000000   0.000000   0.000000   0.000000
    22  C    0.000000   0.000000   0.000000   0.000000   0.000000   0.000000
    23  C    0.000000   0.000000   0.000000   0.000000   0.000000   0.000000
    24  N    0.000000   0.000000   0.000000   0.000000   0.000000   0.000000
    25  C    3.852786   0.000000   0.000000   0.000000   0.000000   0.000000
    26  H    0.000000   0.950000   0.000000   0.000000   0.000000   0.000000
    27  H    0.000000   0.000000   0.957472   0.000000   0.000000   0.000000
    28  H    0.000000   0.000000   0.000000   0.950752   0.000000   0.000000
    29  H    0.000000   0.000000   0.000000   0.000000   0.949415   0.000000
    30  H    0.000000   0.000000   0.000000   0.000000   0.000000   0.958104
    31  H    0.000000   0.000000   0.000000   0.000000   0.000000   0.000000
    32  H    0.000000   0.000000   0.000000   0.000000   0.000000   0.000000
    33  H    0.000000   0.000000   0.000000   0.000000   0.000000   0.000000
    34  H    0.000000   0.000000   0.000000   0.000000   0.000000   0.000000
    35  H    0.000000   0.000000   0.000000   0.000000   0.000000   0.000000
    36  H    0.000000   0.000000   0.000000   0.000000   0.000000   0.000000
              31         32         33         34         35         36
     1  F    0.000000   0.000000   0.000000   0.000000   0.000000   0.000000
     2  C    0.000000   0.000000   0.000000   0.000000   0.000000   0.000000
     3  C    0.000000   0.000000   0.000000   0.000000   0.000000   0.000000
     4  C    0.000000   0.000000   0.000000   0.000000   0.000000   0.000000
     5  C    0.000000   0.000000   0.000000   0.000000   0.000000   0.000000
     6  C    0.000000   0.000000   0.000000   0.000000   0.000000   0.000000
     7  C    0.000000   0.000000   0.000000   0.000000   0.000000   0.000000
     8  C    0.000000   0.000000   0.000000   0.000000   0.000000   0.000000
     9  N    0.000000   0.000000   0.000000   0.000000   0.000000   0.000000
    10  O    0.000000   0.000000   0.000000   0.000000   0.000000   0.000000
    11  C    0.000000   0.000000   0.000000   0.000000   0.000000   0.000000
    12  C    0.000000   0.000000   0.000000   0.000000   0.000000   0.000000
    13  C    0.000000   0.000000   0.000000   0.000000   0.000000   0.000000
    14  C    0.000000   0.000000   0.000000   0.000000   0.000000   0.000000
    15  C    0.000000   0.000000   0.000000   0.000000   0.000000   0.000000
    16  C    0.000000   0.000000   0.000000   0.000000   0.000000   0.000000
    17  O    0.000000   0.000000   0.000000   0.000000   0.000000   0.000000
    18  C    0.000000   0.000000   0.000000   0.000000   0.000000   0.000000
    19  O    0.000000   0.000000   0.000000   0.000000   0.000000   0.000000
    20  C    0.000000   0.000000   0.000000   0.000000   0.000000   0.000000
    21  C    0.000000   0.000000   0.000000   0.000000   0.000000   0.000000
    22  C    0.000000   0.000000   0.000000   0.000000   0.000000   0.000000
    23  C    0.000000   0.000000   0.000000   0.000000   0.000000   0.000000
    24  N    0.000000   0.000000   0.000000   0.000000   0.000000   0.000000
    25  C    0.000000   0.000000   0.000000   0.000000   0.000000   0.000000
    26  H    0.000000   0.000000   0.000000   0.000000   0.000000   0.000000
    27  H    0.000000   0.000000   0.000000   0.000000   0.000000   0.000000
    28  H    0.000000   0.000000   0.000000   0.000000   0.000000   0.000000
    29  H    0.000000   0.000000   0.000000   0.000000   0.000000   0.000000
    30  H    0.000000   0.000000   0.000000   0.000000   0.000000   0.000000
    31  H    0.948361   0.000000   0.000000   0.000000   0.000000   0.000000
    32  H    0.000000   0.946218   0.000000   0.000000   0.000000   0.000000
    33  H    0.000000   0.000000   0.948132   0.000000   0.000000   0.000000
    34  H    0.000000   0.000000   0.000000   0.960967   0.000000   0.000000
    35  H    0.000000   0.000000   0.000000   0.000000   0.945716   0.000000
    36  H    0.000000   0.000000   0.000000   0.000000   0.000000   0.930933
 Mulliken charges:
               1
     1  F   -0.248977
     2  C    0.196022
     3  C   -0.025708
     4  C   -0.024103
     5  C    0.018061
     6  C   -0.014050
     7  C   -0.024237
     8  C    0.200426
     9  N   -0.295531
    10  O   -0.166899
    11  C    0.159910
    12  C   -0.021290
    13  C   -0.011881
    14  C   -0.038212
    15  C    0.161170
    16  C   -0.044495
    17  O   -0.259933
    18  C    0.467375
    19  O   -0.506818
    20  C   -0.001512
    21  C    0.042217
    22  C   -0.044210
    23  C    0.133865
    24  N   -0.352332
    25  C    0.147214
    26  H    0.050000
    27  H    0.042528
    28  H    0.049248
    29  H    0.050585
    30  H    0.041896
    31  H    0.051639
    32  H    0.053782
    33  H    0.051868
    34  H    0.039033
    35  H    0.054284
    36  H    0.069067
 Sum of Mulliken charges =   0.00000
 Mulliken charges with hydrogens summed into heavy atoms:
               1
     1  F   -0.248977
     2  C    0.196022
     3  C    0.024292
     4  C    0.018424
     5  C    0.018061
     6  C    0.035198
     7  C    0.026347
     8  C    0.200426
     9  N   -0.295531
    10  O   -0.166899
    11  C    0.159910
    12  C   -0.021290
    13  C    0.030015
    14  C    0.013428
    15  C    0.161170
    16  C    0.009287
    17  O   -0.259933
    18  C    0.467375
    19  O   -0.506818
    20  C   -0.001512
    21  C    0.094085
    22  C   -0.005177
    23  C    0.188150
    24  N   -0.352332
    25  C    0.216280
 Charge=             -0.0000 electrons
 Dipole moment (field-independent basis, Debye):
    X=             -2.2835    Y=              4.4541    Z=             -0.0579  Tot=              5.0056
 N-N= 7.556344387253D+02 E-N= 0.000000000000D+00  KE=-1.781895089834D+03
 Orbital energies and kinetic energies (alpha):
                                 1                 2
   1         O                -1.848091        -16.685082
   2         O                -1.779572        -16.670595
   3         O                -1.756999        -14.230731
   4         O                -1.690875        -14.434036
   5         O                -1.607153        -15.058332
   6         O                -1.564137        -16.384876
   7         O                -1.488080        -16.337364
   8         O                -1.355695        -15.697408
   9         O                -1.325444        -14.543151
  10         O                -1.253911        -14.454357
  11         O                -1.246957        -13.954113
  12         O                -1.216514        -15.719692
  13         O                -1.132354        -15.572442
  14         O                -1.118641        -15.333718
  15         O                -1.050522        -14.691039
  16         O                -0.996241        -14.411660
  17         O                -0.968718        -13.978953
  18         O                -0.953159        -15.096714
  19         O                -0.947581        -15.035067
  20         O                -0.927873        -14.381082
  21         O                -0.920892        -14.230817
  22         O                -0.855992        -14.241869
  23         O                -0.849539        -14.266722
  24         O                -0.779179        -15.095391
  25         O                -0.748918        -14.381746
  26         O                -0.719520        -13.523230
  27         O                -0.703623        -14.479257
  28         O                -0.699692        -14.405940
  29         O                -0.682108        -14.927092
  30         O                -0.661328        -14.945526
  31         O                -0.634001        -13.187890
  32         O                -0.627790        -14.916148
  33         O                -0.619681        -14.608155
  34         O                -0.609019        -13.607936
  35         O                -0.602981        -14.483934
  36         O                -0.596833        -14.194402
  37         O                -0.581469        -14.077567
  38         O                -0.572199        -14.682846
  39         O                -0.565818        -14.251991
  40         O                -0.558907        -14.093356
  41         O                -0.553667        -13.572073
  42         O                -0.541238        -14.250601
  43         O                -0.524901        -14.282983
  44         O                -0.513740        -13.614065
  45         O                -0.500799        -14.251385
  46         O                -0.497476        -14.531224
  47         O                -0.481684        -15.019557
  48         O                -0.473485        -15.303871
  49         O                -0.470181        -13.534378
  50         O                -0.452244        -15.014484
  51         O                -0.435787        -15.504084
  52         O                -0.424107        -15.036981
  53         O                -0.404717        -14.857791
  54         O                -0.401495        -14.413646
  55         O                -0.390807        -13.259879
  56         O                -0.385761        -13.608935
  57         O                -0.354780        -13.620903
  58         O                -0.354030        -13.247287
  59         O                -0.342794        -14.748360
  60         O                -0.324784        -14.832590
  61         O                -0.321796        -15.170241
  62         V                -0.030390        -13.859084
  63         V                -0.023676        -14.610666
  64         V                -0.005049        -12.967827
  65         V                 0.007908        -13.965608
  66         V                 0.008484        -13.873738
  67         V                 0.015472        -15.199189
  68         V                 0.036875        -13.774180
  69         V                 0.050114        -14.762166
  70         V                 0.072710        -14.315557
  71         V                 0.076006        -13.859961
  72         V                 0.085789        -13.944456
  73         V                 0.089776        -13.193695
  74         V                 0.093521        -14.101259
  75         V                 0.100454        -13.574429
  76         V                 0.102408        -14.536030
  77         V                 0.107367        -13.207014
  78         V                 0.121290        -14.386928
  79         V                 0.123728        -14.488514
  80         V                 0.129197        -13.491240
  81         V                 0.137078        -12.524117
  82         V                 0.144856        -13.360575
  83         V                 0.153133        -14.094535
  84         V                 0.183110        -11.898346
  85         V                 0.193730        -12.874329
  86         V                 0.196143        -13.834333
  87         V                 0.200981        -13.800942
  88         V                 0.202698        -13.805126
  89         V                 0.221578        -14.087302
  90         V                 0.236400        -13.866081
  91         V                 0.270181        -14.320849
  92         V                 0.279442        -12.070015
  93         V                 0.286027        -14.568820
  94         V                 0.302588        -12.258581
  95         V                 0.312167        -13.990585
  96         V                 0.316388        -12.920005
  97         V                 0.328672        -13.725042
  98         V                 0.339375        -13.881803
  99         V                 0.375332        -13.473359
 100         V                 0.395112        -13.618294
 101         V                 0.397203        -13.108372
 102         V                 0.403539        -14.016375
 103         V                 0.411657        -13.547091
 104         V                 0.419663        -13.824024
 105         V                 0.437520        -13.393929
 106         V                 0.446988        -14.325437
 107         V                 0.456770        -13.914105
 108         V                 0.475808        -13.600000
 109         V                 0.485155        -13.910651
 110         V                 0.492102        -13.709055
 111         V                 0.522209        -14.548548
 Total kinetic energy from orbitals=-1.781895089834D+03

 Test job not archived.
 1\1\GINC-NODE026\SP\RZINDO CIS\STO-3G\C19H11F1N2O3\SGOOMAR1\12-Aug-202
 5\0\\#n ZINDO sp IOP(5/33=2) PUNCH=(MO,Coord) pop=full nosymm\\title\\
 0,1\F,0,1.97867,0.19041,0.71918\C,0,0.67089,0.11794,0.52561\C,0,0.1989
 6,-0.02025,-0.77994\C,0,-1.17655,-0.09039,-0.97379\C,0,-2.04578,-0.019
 28,0.12091\C,0,-1.54327,0.10676,1.42108\C,0,-0.17043,0.18079,1.63587\C
 ,0,-3.4818,-0.07863,-0.09958\N,0,-4.32578,-0.77884,0.64415\O,0,-5.6196
 8,-0.63047,0.1733\C,0,-5.56794,0.20991,-0.91956\C,0,-4.22724,0.60735,-
 1.15078\C,0,-3.92775,1.47993,-2.19284\C,0,-4.9708,1.92791,-2.99189\C,0
 ,-6.28395,1.49445,-2.73427\C,0,-6.63428,0.62786,-1.69994\O,0,-7.3561,1
 .99517,-3.43289\C,0,-7.31344,2.05525,-4.80555\O,0,-6.37968,1.65065,-5.
 44072\C,0,-8.55354,2.64677,-5.31625\C,0,-9.5246,3.22702,-4.49702\C,0,-
 10.66613,3.7634,-5.08736\C,0,-10.79701,3.70062,-6.48114\N,0,-9.86178,3
 .14252,-7.27557\C,0,-8.76033,2.62486,-6.7093\H,0,0.88401,-0.07563,-1.6
 2425\H,0,-1.57878,-0.21302,-1.98111\H,0,-2.23386,0.14322,2.26744\H,0,0
 .23028,0.28155,2.64317\H,0,-2.90326,1.80665,-2.37065\H,0,-4.77856,2.60
 849,-3.8204\H,0,-7.65681,0.31298,-1.52493\H,0,-9.39734,3.26457,-3.4111
 7\H,0,-11.44289,4.22259,-4.48143\H,0,-11.67586,4.10713,-6.99876\H,0,-8
 .02055,2.17894,-7.39331\\Version=ES64L-G16RevA.03\HF=-184.2813833\RMSD
 =3.668e-09\PG=C01 [X(C19H11F1N2O3)]\\@


 I FIND THAT THE THREE TRULY GREAT TIMES FOR THINKING THOUGHTS
 ARE WHEN I AM STANDING IN THE SHOWER, SITTING ON THE JOHN, OR WALKING.

                                    -- COLIN FLETCHER
 Job cpu time:       0 days  0 hours  0 minutes 11.9 seconds.
 Elapsed time:       0 days  0 hours  0 minutes  4.2 seconds.
 File lengths (MBytes):  RWF=    154 Int=      0 D2E=      0 Chk=      4 Scr=      1
 Normal termination of Gaussian 16 at Tue Aug 12 16:05:42 2025.
