 Entering Gaussian System, Link 0=g16
 Initial command:
 /opt/apps/pkg/applications/licensed/gaussian/v16/x86_64AVX2/g16/l1.exe "/tmp/258171/88/0706_ZINC000001580372_07/Gau-1273977.inp" -scrdir="/tmp/258171/88/0706_ZINC000001580372_07/"
 Entering Link 1 = /opt/apps/pkg/applications/licensed/gaussian/v16/x86_64AVX2/g16/l1.exe PID=   1273978.
  
 Copyright (c) 1988,1990,1992,1993,1995,1998,2003,2009,2016,
            Gaussian, Inc.  All Rights Reserved.
  
 This is part of the Gaussian(R) 16 program.  It is based on
 the Gaussian(R) 09 system (copyright 2009, Gaussian, Inc.),
 the Gaussian(R) 03 system (copyright 2003, Gaussian, Inc.),
 the Gaussian(R) 98 system (copyright 1998, Gaussian, Inc.),
 the Gaussian(R) 94 system (copyright 1995, Gaussian, Inc.),
 the Gaussian 92(TM) system (copyright 1992, Gaussian, Inc.),
 the Gaussian 90(TM) system (copyright 1990, Gaussian, Inc.),
 the Gaussian 88(TM) system (copyright 1988, Gaussian, Inc.),
 the Gaussian 86(TM) system (copyright 1986, Carnegie Mellon
 University), and the Gaussian 82(TM) system (copyright 1983,
 Carnegie Mellon University). Gaussian is a federally registered
 trademark of Gaussian, Inc.
  
 This software contains proprietary and confidential information,
 including trade secrets, belonging to Gaussian, Inc.
  
 This software is provided under written license and may be
 used, copied, transmitted, or stored only in accord with that
 written license.
  
 The following legend is applicable only to US Government
 contracts under FAR:
  
                    RESTRICTED RIGHTS LEGEND
  
 Use, reproduction and disclosure by the US Government is
 subject to restrictions as set forth in subparagraphs (a)
 and (c) of the Commercial Computer Software - Restricted
 Rights clause in FAR 52.227-19.
  
 Gaussian, Inc.
 340 Quinnipiac St., Bldg. 40, Wallingford CT 06492
  
  
 ---------------------------------------------------------------
 Warning -- This program may not be used in any manner that
 competes with the business of Gaussian, Inc. or will provide
 assistance to any competitor of Gaussian, Inc.  The licensee
 of this program is prohibited from giving any competitor of
 Gaussian, Inc. access to this program.  By using this program,
 the user acknowledges that Gaussian, Inc. is engaged in the
 business of creating and licensing software in the field of
 computational chemistry and represents and warrants to the
 licensee that it is not a competitor of Gaussian, Inc. and that
 it will not use this program in any manner prohibited above.
 ---------------------------------------------------------------
  

 Cite this work as:
 Gaussian 16, Revision A.03,
 M. J. Frisch, G. W. Trucks, H. B. Schlegel, G. E. Scuseria, 
 M. A. Robb, J. R. Cheeseman, G. Scalmani, V. Barone, 
 G. A. Petersson, H. Nakatsuji, X. Li, M. Caricato, A. V. Marenich, 
 J. Bloino, B. G. Janesko, R. Gomperts, B. Mennucci, H. P. Hratchian, 
 J. V. Ortiz, A. F. Izmaylov, J. L. Sonnenberg, D. Williams-Young, 
 F. Ding, F. Lipparini, F. Egidi, J. Goings, B. Peng, A. Petrone, 
 T. Henderson, D. Ranasinghe, V. G. Zakrzewski, J. Gao, N. Rega, 
 G. Zheng, W. Liang, M. Hada, M. Ehara, K. Toyota, R. Fukuda, 
 J. Hasegawa, M. Ishida, T. Nakajima, Y. Honda, O. Kitao, H. Nakai, 
 T. Vreven, K. Throssell, J. A. Montgomery, Jr., J. E. Peralta, 
 F. Ogliaro, M. J. Bearpark, J. J. Heyd, E. N. Brothers, K. N. Kudin, 
 V. N. Staroverov, T. A. Keith, R. Kobayashi, J. Normand, 
 K. Raghavachari, A. P. Rendell, J. C. Burant, S. S. Iyengar, 
 J. Tomasi, M. Cossi, J. M. Millam, M. Klene, C. Adamo, R. Cammi, 
 J. W. Ochterski, R. L. Martin, K. Morokuma, O. Farkas, 
 J. B. Foresman, and D. J. Fox, Gaussian, Inc., Wallingford CT, 2016.
 
 ******************************************
 Gaussian 16:  ES64L-G16RevA.03 25-Dec-2016
                12-Aug-2025 
 ******************************************
 %nproc=4
 Will use up to    4 processors via shared memory.
 %chk=ZINC000001580372_07.chk
 --------------------------------------------------------
 #n ZINDO sp IOP(5/33=2) PUNCH=(MO,Coord) pop=full nosymm
 --------------------------------------------------------
 1/38=1,172=1/1;
 2/12=2,15=1,17=6,18=5,40=1/2;
 3/5=2,25=1,41=400000/1,2,3,8;
 4/5=3,35=1/1;
 5/5=2,33=2,35=1,38=5/2;
 8/6=1/1;
 9/42=1,49=10/14;
 6/7=3/1;
 99/5=1,9=1,10=34/99;
 -----
 title
 -----
 Symbolic Z-matrix:
 Charge =  0 Multiplicity = 1
 C                     8.75163   4.65782  -0.66103 
 C                     7.63221   3.94343   0.09557 
 C                     7.93036   2.44287   0.2256 
 C                     6.86104   1.76399   1.0916 
 C                     7.196     0.28509   1.34862 
 C                     6.78224  -0.05385   2.75421 
 O                     5.69769  -0.50462   3.02816 
 N                     7.69454   0.15484   3.8284 
 S                     9.33268   0.73304   3.56719 
 C                     9.04561   2.42959   4.12984 
 N                     8.18818   2.72145   5.05724 
 C                     7.43284   1.7224    5.69434 
 C                     7.15679   0.45981   5.10878 
 C                     6.3429   -0.45759   5.77766 
 C                     5.815    -0.12853   7.02246 
 C                     6.09323   1.10725   7.60782 
 C                     6.89757   2.03179   6.95231 
 N                     9.74785   3.49963   3.57081 
 C                     10.68619   3.35036   2.55532 
 O                     11.10398   2.31998   2.0924 
 O                     11.05009   4.60416   2.14875 
 C                     12.11354   4.60871   1.19381 
 H                     8.52916   5.7233   -0.78641 
 H                     8.89855   4.23094  -1.65844 
 H                     9.70295   4.58357  -0.12284 
 H                     6.66453   4.09838  -0.41773 
 H                     7.51838   4.39461   1.09996 
 H                     8.93272   2.30091   0.67202 
 H                     7.97846   1.97155  -0.7724 
 H                     5.86841   1.84403   0.60782 
 H                     6.75765   2.3153    2.04575 
 H                     8.25838   0.05936   1.13829 
 H                     6.6286   -0.36085   0.64144 
 H                     6.11779  -1.4213    5.31511 
 H                     5.17295  -0.84197   7.53915 
 H                     5.67369   1.35133   8.58286 
 H                     7.11758   3.00384   7.39629 
 H                     9.52487   4.44122   3.90726 
 H                     12.24124   5.67964   0.99256 
 H                     11.82544   4.0581    0.29111 
 H                     13.01633   4.17049   1.63303 
 
                          Input orientation:                          
 ---------------------------------------------------------------------
 Center     Atomic      Atomic             Coordinates (Angstroms)
 Number     Number       Type             X           Y           Z
 ---------------------------------------------------------------------
      1          6           0        8.751630    4.657820   -0.661030
      2          6           0        7.632210    3.943430    0.095570
      3          6           0        7.930360    2.442870    0.225600
      4          6           0        6.861040    1.763990    1.091600
      5          6           0        7.196000    0.285090    1.348620
      6          6           0        6.782240   -0.053850    2.754210
      7          8           0        5.697690   -0.504620    3.028160
      8          7           0        7.694540    0.154840    3.828400
      9         16           0        9.332680    0.733040    3.567190
     10          6           0        9.045610    2.429590    4.129840
     11          7           0        8.188180    2.721450    5.057240
     12          6           0        7.432840    1.722400    5.694340
     13          6           0        7.156790    0.459810    5.108780
     14          6           0        6.342900   -0.457590    5.777660
     15          6           0        5.815000   -0.128530    7.022460
     16          6           0        6.093230    1.107250    7.607820
     17          6           0        6.897570    2.031790    6.952310
     18          7           0        9.747850    3.499630    3.570810
     19          6           0       10.686190    3.350360    2.555320
     20          8           0       11.103980    2.319980    2.092400
     21          8           0       11.050090    4.604160    2.148750
     22          6           0       12.113540    4.608710    1.193810
     23          1           0        8.529160    5.723300   -0.786410
     24          1           0        8.898550    4.230940   -1.658440
     25          1           0        9.702950    4.583570   -0.122840
     26          1           0        6.664530    4.098380   -0.417730
     27          1           0        7.518380    4.394610    1.099960
     28          1           0        8.932720    2.300910    0.672020
     29          1           0        7.978460    1.971550   -0.772400
     30          1           0        5.868410    1.844030    0.607820
     31          1           0        6.757650    2.315300    2.045750
     32          1           0        8.258380    0.059360    1.138290
     33          1           0        6.628600   -0.360850    0.641440
     34          1           0        6.117790   -1.421300    5.315110
     35          1           0        5.172950   -0.841970    7.539150
     36          1           0        5.673690    1.351330    8.582860
     37          1           0        7.117580    3.003840    7.396290
     38          1           0        9.524870    4.441220    3.907260
     39          1           0       12.241240    5.679640    0.992560
     40          1           0       11.825440    4.058100    0.291110
     41          1           0       13.016330    4.170490    1.633030
 ---------------------------------------------------------------------
                    Distance matrix (angstroms):
                    1          2          3          4          5
     1  C    0.000000
     2  C    1.528364   0.000000
     3  C    2.523212   1.535409   0.000000
     4  C    3.875602   2.517288   1.534366   0.000000
     5  C    5.057613   3.891512   2.540959   1.537987   0.000000
     6  C    6.143468   4.875353   3.734389   2.464756   1.503915
     7  O    7.041836   5.668121   4.639704   3.201599   2.385252
     8  N    6.445871   5.318958   4.274443   3.282402   2.532749
     9  S    5.798221   5.024972   4.007024   3.646972   3.112573
    10  C    5.291868   4.534837   4.060425   3.800825   3.969272
    11  N    6.063466   5.140088   4.846527   4.290027   4.546882
    12  C    7.123667   6.026520   5.538386   4.638308   4.583365
    13  C    7.311464   6.123227   5.326949   4.233921   3.764421
    14  C    8.568905   7.301879   6.462048   5.211818   4.571187
    15  C    9.516773   8.238016   7.568629   6.312759   5.854118
    16  C    9.383364   8.175957   7.723736   6.594085   6.408559
    17  C    8.264171   7.156043   6.817937   5.866939   5.877190
    18  N    4.499147   4.092699   3.951005   4.182416   4.667262
    19  C    3.974529   3.965967   3.720985   4.392131   4.799316
    20  O    4.310501   4.321586   3.684007   4.394686   4.468366
    21  O    3.630518   4.041536   4.254691   5.170326   5.843679
    22  C    3.839959   4.661657   4.809084   5.974248   6.549798
    23  H    1.095655   2.179529   3.484817   4.688889   5.992478
    24  H    1.094824   2.182391   2.772038   4.219006   5.245076
    25  H    1.095523   2.178405   2.801086   4.183461   5.189116
    26  H    2.174432   1.106296   2.181035   2.786767   4.235993
    27  H    2.165934   1.106942   2.177963   2.711518   4.129639
    28  H    2.713824   2.172900   1.106422   2.180869   2.745453
    29  H    2.797542   2.182103   1.104744   2.183164   2.820482
    30  H    4.223784   2.789421   2.180903   1.107142   2.177516
    31  H    4.097562   2.686794   2.168979   1.106813   2.190866
    32  H    4.962528   4.070056   2.573270   2.204655   1.106275
    33  H    5.602743   4.453317   3.119030   2.184403   1.113232
    34  H    8.922279   7.636583   6.642314   5.341959   4.450545
    35  H   10.502266   9.184492   8.478296   7.156226   6.609513
    36  H   10.288639   9.087842   8.725125   7.595990   7.469172
    37  H    8.386070   7.378901   7.238376   6.430564   6.631143
    38  H    4.638328   4.284733   4.482241   4.710785   5.407744
    39  H    3.994478   5.006214   5.445052   6.654974   7.394755
    40  H    3.273308   4.199353   4.217216   5.527114   6.065117
    41  H    4.867018   5.603935   5.552713   6.631137   7.003818
                    6          7          8          9         10
     6  C    0.000000
     7  O    1.206023   0.000000
     8  N    1.424685   2.250040   0.000000
     9  S    2.790139   3.877565   1.756715   0.000000
    10  C    3.630795   4.586050   2.662845   1.810322   0.000000
    11  N    3.870776   4.552717   2.888116   2.735672   1.296318
    12  C    3.496099   3.883153   2.451013   3.018773   2.355590
    13  C    2.438880   2.718102   1.421814   2.680607   2.899310
    14  C    3.081765   2.824581   2.449820   3.904172   4.284362
    15  C    4.377110   4.013681   3.716852   5.005524   5.034687
    16  C    5.037898   4.871125   4.213703   5.192375   4.749892
    17  C    4.689055   4.824110   3.730538   4.367556   3.569126
    18  N    4.699883   5.721213   3.933199   2.797570   1.396654
    19  C    5.183534   6.322150   4.558733   3.115483   2.453250
    20  O    4.974987   6.171060   4.396113   2.798372   2.898286
    21  O    6.346509   7.451254   5.820429   4.466211   3.559693
    22  C    7.252384   8.406790   6.804821   5.327939   4.772948
    23  H    6.997370   7.832953   7.280165   6.670995   5.940098
    24  H    6.504589   7.391566   6.940435   6.303252   6.063883
    25  H    6.189800   7.201429   6.265753   5.346027   4.812173
    26  H    5.226478   5.830656   5.885750   5.858679   5.397666
    27  H    4.802837   5.570935   5.044905   4.773469   3.920958
    28  H    3.808540   4.887516   4.012660   3.316654   3.462055
    29  H    4.239123   5.077163   4.954635   4.711673   5.037913
    30  H    3.007328   3.376884   4.069429   4.689705   4.779342
    31  H    2.472932   3.168690   2.953505   3.383653   3.096975
    32  H    2.191576   3.232153   2.750222   2.739985   3.897062
    33  H    2.140479   2.565871   3.399835   4.131423   5.079117
    34  H    2.978191   2.499385   2.679676   4.246401   4.980597
    35  H    5.109462   4.553920   4.595836   5.963261   6.109337
    36  H    6.097260   5.856605   5.302859   6.239186   5.688750
    37  H    5.568737   5.779787   4.602122   4.972445   3.836243
    38  H    5.390473   6.315177   4.661478   3.728697   2.079877
    39  H    8.110302   9.230752   7.696615   6.289459   5.533299
    40  H    6.957648   8.115367   6.694191   5.291746   5.011521
    41  H    7.613539   8.795768   7.019013   5.396880   5.003140
                   11         12         13         14         15
    11  N    0.000000
    12  C    1.405182   0.000000
    13  C    2.486250   1.418879   0.000000
    14  C    3.745712   2.438702   1.396940   0.000000
    15  C    4.197197   2.794146   2.410128   1.391577   0.000000
    16  C    3.674223   2.415444   2.792049   2.420856   1.395425
    17  C    2.394284   1.401686   2.436579   2.807931   2.417408
    18  N    2.290766   3.609321   4.280123   5.667756   6.367475
    19  C    3.590987   4.804996   5.228011   6.614237   7.469037
    20  O    4.177720   5.177677   5.304629   6.630529   7.633741
    21  O    4.493822   5.827542   6.410554   7.806916   8.576571
    22  C    5.822052   7.105949   7.557098   8.943118   9.802357
    23  H    6.578420   7.694754   8.021284   9.277400  10.128624
    24  H    6.919794   7.905976   7.940429   9.154739  10.191726
    25  H    5.709225   6.868717   7.131492   8.456898   9.400817
    26  H    5.847456   6.602498   6.635045   7.696958   8.599122
    27  H    4.348352   5.315670   5.628857   6.841526   7.644364
    28  H    4.467812   5.273330   5.121369   6.354845   7.480003
    29  H    5.881414   6.494498   6.127706   7.174891   8.357675
    30  H    5.093971   5.323056   4.882072   5.678894   6.711293
    31  H    3.358638   3.757608   3.603375   4.667771   5.623925
    32  H    4.738124   4.919838   4.139885   5.045796   6.374078
    33  H    5.606439   5.524358   4.572701   5.145069   6.436873
    34  H    4.638468   3.428706   2.158858   1.092412   2.162864
    35  H    5.286724   3.884124   3.396609   2.149274   1.090043
    36  H    4.542013   3.402330   3.881189   3.404289   2.155180
    37  H    2.587872   2.153627   3.421451   3.898922   3.412947
    38  H    2.463088   3.868104   4.785716   6.133651   6.659596
    39  H    6.457539   7.803025   8.369081   9.764896  10.554198
    40  H    6.142661   7.344748   7.612748   8.975073   9.948082
    41  H    6.093928   7.325486   7.757847   9.117661   9.969287
                   16         17         18         19         20
    16  C    0.000000
    17  C    1.389759   0.000000
    18  N    5.947872   4.659742   0.000000
    19  C    7.187112   5.951957   1.390677   0.000000
    20  O    7.549714   6.433946   2.327307   1.204378   0.000000
    21  O    8.160900   6.850890   2.222177   1.367383   2.285510
    22  C    9.468045   8.185791   3.532234   2.339761   2.657999
    23  H    9.884572   8.727950   5.041357   4.631499   5.147799
    24  H   10.173044   9.109621   5.348007   4.661207   4.752314
    25  H    9.212925   8.027421   3.849674   3.108072   3.463237
    26  H    8.583862   7.657845   5.076792   5.056907   5.401127
    27  H    7.428999   6.341792   3.446248   3.639169   4.259760
    28  H    7.588995   6.607292   3.241042   2.778996   2.594651
    29  H    8.633029   7.800198   4.932468   4.506289   4.254099
    30  H    7.042257   6.430162   5.154646   5.410433   5.462756
    31  H    5.730398   4.916735   3.559458   4.094440   4.346583
    32  H    6.902229   6.288490   4.468907   4.328154   3.757415
    33  H    7.139495   6.754565   5.763179   5.822375   5.414902
    34  H    3.413310   3.900296   6.358889   7.159292   7.017487
    35  H    2.156638   3.402527   7.451639   8.532878   8.651135
    36  H    1.089170   2.149326   6.806954   8.090273   8.517770
    37  H    2.165893   1.091056   4.668878   6.024122   6.670105
    38  H    6.048608   4.688325   1.024456   2.089589   3.207330
    39  H   10.122571   8.796604   4.197238   3.207171   3.713533
    40  H    9.751922   8.530031   3.922334   2.631622   2.605036
    41  H    9.644214   8.384987   3.858498   2.636813   2.700461
                   21         22         23         24         25
    21  O    0.000000
    22  C    1.429285   0.000000
    23  H    4.027745   4.243980   0.000000
    24  H    4.388976   4.314418   1.767491   0.000000
    25  H    2.641085   2.746842   1.765529   1.769032   0.000000
    26  H    5.106444   5.705191   2.500627   2.558863   3.091014
    27  H    3.690101   4.601102   2.519025   3.088758   2.510636
    28  H    3.459617   3.964319   3.742009   3.026091   2.536847
    29  H    4.989856   5.283889   3.791978   2.595472   3.196630
    30  H    6.069810   6.854815   4.906343   4.473815   4.768924
    31  H    4.865648   5.888216   4.772195   4.687660   4.303792
    32  H    5.428617   5.963382   5.988156   5.062963   4.913828
    33  H    6.817102   7.422008   6.532057   5.614860   5.872226
    34  H    8.405926   9.449611   9.699926   9.397385   8.859071
    35  H    9.656993  10.869455  11.121235  11.144962  10.424177
    36  H    8.993573  10.328613  10.726185  11.116479  10.122822
    37  H    6.749988   8.124407   8.737540   9.309445   8.106602
    38  H    2.333496   3.753941   4.966458   5.604776   4.036543
    39  H    1.977946   1.097133   4.116574   4.505564   2.981342
    40  H    2.085707   1.095920   3.846999   3.520981   2.225407
    41  H    2.078494   1.095436   5.329128   5.271958   3.772559
                   26         27         28         29         30
    26  H    0.000000
    27  H    1.766407   0.000000
    28  H    3.092433   2.562630   0.000000
    29  H    2.524997   3.096551   1.762226   0.000000
    30  H    2.601471   3.077346   3.098848   2.524595   0.000000
    31  H    3.042496   2.407646   2.572600   3.090390   1.755131
    32  H    4.612509   4.398120   2.386774   2.717639   3.029588
    33  H    4.583434   4.859666   3.520635   3.043215   2.332491
    34  H    7.976920   7.318057   6.583082   7.213273   5.734383
    35  H    9.483871   8.624731   8.436293   9.212418   7.466029
    36  H    9.462487   8.286026   8.608389   9.654922   7.992617
    37  H    7.903302   6.460546   7.000332   8.278541   6.999208
    38  H    5.196597   3.450958   3.924073   5.512701   5.567890
    39  H    5.965651   4.895737   4.739712   5.919148   7.448013
    40  H    5.209517   4.395252   3.405971   4.503776   6.363067
    41  H    6.675042   5.528277   4.592901   6.000130   7.586582
                   31         32         33         34         35
    31  H    0.000000
    32  H    2.857436   0.000000
    33  H    3.024983   1.754884   0.000000
    34  H    5.006028   4.921413   4.819613   0.000000
    35  H    6.531238   7.162631   7.066031   2.484894   0.000000
    36  H    6.696119   7.985702   8.179827   4.308467   2.480048
    37  H    5.406655   7.009561   7.562291   4.991268   4.311873
    38  H    3.955030   5.335906   6.489517   6.925271   7.748673
    39  H    6.519030   6.889990   8.253032  10.324942  11.634000
    40  H    5.639026   5.425085   6.830593   9.372389  10.990923
    41  H    6.540882   6.307475   7.894263   9.613308  11.023866
                   36         37         38         39         40
    36  H    0.000000
    37  H    2.494706   0.000000
    38  H    6.800018   4.475984   0.000000
    39  H   10.930674   8.626677   4.172269   0.000000
    40  H   10.673507   8.588306   4.303016   1.815024   0.000000
    41  H   10.495816   8.328955   4.175609   1.813422   1.797665
                   41
    41  H    0.000000
 Symmetry turned off by external request.
 Stoichiometry    C15H19N3O3S
 Framework group  C1[X(C15H19N3O3S)]
 Deg. of freedom   117
 Full point group                 C1      NOp   1
 Rotational constants (GHZ):           0.4378912           0.1818415           0.1520501
 Standard basis: VSTO-6G (5D, 7F)
   107 basis functions,   642 primitive gaussians,   107 cartesian basis functions
    59 alpha electrons       59 beta electrons
       nuclear repulsion energy       975.6666602942 Hartrees.
 Integral buffers will be    131072 words long.
 Regular integral format.
 Two-electron integral symmetry is turned off.
 Do NDO integrals.
 One-electron integrals computed using PRISM.
 Generate ZINDO/S integrals.
 NDO Nuclear repulsion=   783.920144658217 Hartrees.
 NBasis=   107 RedAO= F EigKep=  0.00D+00  NBF=   107
 NBsUse=   107 1.00D-04 EigRej=  0.00D+00 NBFU=   107
 DipDrv:  will hold  3 matrices at once.
 Simple Huckel Guess.
 A Direct SCF calculation will be performed.
 ReadGW:  IGet=1 IStart=        1224 Next=        1224 LGW=           0.
 Two-electron integral symmetry not used.
 Pruned (  99, 590) grid will be used in numerical quadrature.
 Closed shell SCF:
 Using DIIS extrapolation, IDIIS=  1040.
 Overlap will be assumed to be unity.
 NBasis=      107 NAllTT=     5778 NAllSq=    11449 NWIIB=         0
 INEq=       1287 IIJ=        1287 ID=         1551
 IDD=       13000 IDA=        1551 IDB=        7329 IF=        13107
 IFF=       24556 IFA=       13107 IFB=       18885 IScr2=     24663
 IV=        25519 IBuf2E=     1395 IMin=      42160
 IOpCl=         0
 NGot=   104857600 LenX=   104832082 LenY=   104820192
 Requested convergence on RMS density matrix=1.00D-08 within 128 cycles.
 Requested convergence on MAX density matrix=1.00D-06.
 Requested convergence on             energy=1.00D-06.
 No special actions if energy rises.
 Fock matrices will be formed incrementally for  20 cycles.
 Selected VarAcc= 1.

 Cycle   1  Pass 1  IDiag  1:
 One-electron energy=-0.181272506321D+04
 FoF2E:  PMaxA= 9.67D-01S
 Calling FoFJK with Acc= 0.00D+00 ICntrl=       0.
 FoF2E:  FMaxA= 1.66D+01S
 ChkPGP:  NMat=1 NMatS=1 NMatT=0
 EA=  859.651233220      0.00000000000      0.00000000000      0.00000000000    
 EB=  859.651233220      0.00000000000      0.00000000000      0.00000000000    
 ETotA=  859.651233220     ETotB=  859.651233220    
 1/2 <PG(P)>=         859.651233219818
 IMat=  1 1/2 <PG(P)>=         859.651233219818
 IMat=  1 EOne=-0.181272506321D+04 ETwo= 0.859651233220D+03 Energy=-0.953073829993D+03
 1/2 <PG(P)>=         859.651233219818
 E= -169.153685335158    
 DIIS: error= 5.38D-02 at cycle   1 NSaved=   1.
 B matrix at iteration          1
                 1             2 
      1   0.000000D+00 -0.100000D+01
      2  -0.100000D+01 -0.286091D+00
 Tr matrix at iteration          1
                 1             2 
      1   0.000000D+00  0.000000D+00
      2   0.000000D+00 -0.467113D+02
 BE matrix at iteration          1
                 1             2 
      1   0.000000D+00 -0.100000D+01
      2  -0.100000D+01  0.000000D+00
 NSaved= 1 IEnMin= 1 EnMin= -169.153685335158     IErMin= 1 ErrMin= 5.38D-02
 ErrMax= 5.38D-02  0.00D+00 EMaxC= 1.00D-01 BMatC= 2.86D-01 BMatP= 2.86D-01
 IDIUse=3 WtCom= 4.62D-01 WtEn= 5.38D-01
 UpdtCf It   0X -169.1536853      1.00000000
 UpdtCf It   0Y -169.1536853      1.00000000
 EnCoef: B12  0.0000000D+00 lambda  0.000000
 UpdtCf It   1F -169.1536853      1.00000000
 UpdtCf It   1B -169.1536853      1.00000000
 Eold -169.1536853352     Efwd -169.1536853352     Ebck -169.1536853352    
 Coeff-Com:  0.100D+01
 Coeff-En:   0.100D+01
 Coeff:      0.100D+01
 NOrbs=   107 LenY=   104820192 NE2=      979627 LScr= 7
 GapD=    2.000 DampG=2.000 DampE=0.500 DampFc=1.0000 IDamp=-1.
 RMSDP=8.74D-03 MaxDP=1.67D-01              OVMax= 0.00D+00

 Cycle   2  Pass 1  IDiag  1:
 One-electron energy=-0.181537512841D+04
 RMSU=  8.72D-03    CP:  9.93D-01
 FoF2E:  PMaxA= 1.61D-01S
 Calling FoFJK with Acc= 0.00D+00 ICntrl=       0.
 FoF2E:  FMaxA= 2.24D-01S
 ChkPGP:  NMat=1 NMatS=1 NMatT=0
 EA=-0.171195397138E-01  0.00000000000      0.00000000000      0.00000000000    
 EB=-0.171195397138E-01  0.00000000000      0.00000000000      0.00000000000    
 ETotA=-0.171195397138E-01 ETotB=-0.171195397138E-01
 1/2 <PG(P)>=          -0.017119539714
 IMat=  1 1/2 <PG(P)>=         861.562276581019
 IMat=  1 EOne=-0.181537512841D+04 ETwo= 0.861562276581D+03 Energy=-0.953812851833D+03
 1/2 <PG(P)>=         861.562276581019
 E= -169.892707174286     Delta-E=       -0.739021839128 Rises=F Damp=F
 DIIS: error= 2.06D-02 at cycle   2 NSaved=   2.
 B matrix at iteration          2
                 1             2             3 
      1   0.000000D+00 -0.100000D+01 -0.100000D+01
      2  -0.100000D+01 -0.286091D+00 -0.311314D-01
      3  -0.100000D+01 -0.311314D-01 -0.275086D-01
 Tr matrix at iteration          2
                 1             2             3 
      1  -0.169154D+03  0.000000D+00  0.000000D+00
      2   0.100000D+01 -0.467113D+02 -0.470413D+02
      3   0.000000D+00 -0.457162D+02 -0.461253D+02
 BE matrix at iteration          2
                 1             2             3 
      1   0.000000D+00 -0.100000D+01 -0.100000D+01
      2  -0.100000D+01  0.000000D+00 -0.790883D-01
      3  -0.100000D+01 -0.790883D-01  0.000000D+00
 NSaved= 2 IEnMin= 2 EnMin= -169.892707174286     IErMin= 2 ErrMin= 2.06D-02
 ErrMax= 2.06D-02  0.00D+00 EMaxC= 1.00D-01 BMatC= 2.75D-02 BMatP= 2.86D-01
 IDIUse=3 WtCom= 7.94D-01 WtEn= 2.06D-01
 Inv2:  IOpt= 1 Iter= 1 AM= 9.13D-16 Conv= 1.00D-12.
  NMat       2 lam      0.000000      B12    -0.079088
 UpdtCf It   0X -169.8927072      0.00000000  1.00000000
  NMat       1 lam      0.000000      B12    -0.079088
 UpdtCf It   0Y -169.8927072      0.00000000  1.00000000
 EnCoef: B12 -0.7908834D-01 lambda  0.000000
 UpdtCf It   1F -169.8927072      0.00000000  1.00000000
 UpdtCf It   1B -169.8927072      0.00000000  1.00000000
 Eold -169.1536853352     Efwd -169.8927071743     Ebck -169.8927071743    
 Coeff-Com: -0.144D-01 0.101D+01
 Coeff-En:   0.000D+00 0.100D+01
 Coeff:     -0.115D-01 0.101D+01
 NOrbs=   107 LenY=   104820192 NE2=      979627 LScr= 7
 RMSDP=2.37D-03 MaxDP=5.04D-02 DE=-7.39D-01 OVMax= 0.00D+00

 Cycle   3  Pass 1  IDiag  1:
 One-electron energy=-0.181472650589D+04
 RMSU=  2.32D-03    CP:  9.91D-01  1.06D+00
 FoF2E:  PMaxA= 5.32D-02S
 Calling FoFJK with Acc= 0.00D+00 ICntrl=       0.
 FoF2E:  FMaxA= 4.35D-02S
 ChkPGP:  NMat=1 NMatS=1 NMatT=0
 EA= 0.534125862209E-02  0.00000000000      0.00000000000      0.00000000000    
 EB= 0.534125862209E-02  0.00000000000      0.00000000000      0.00000000000    
 ETotA= 0.534125862209E-02 ETotB= 0.534125862209E-02
 1/2 <PG(P)>=           0.005341258622
 IMat=  1 1/2 <PG(P)>=         860.861050755556
 IMat=  1 EOne=-0.181472650589D+04 ETwo= 0.860861050756D+03 Energy=-0.953865455139D+03
 1/2 <PG(P)>=         860.861050755556
 E= -169.945310480342     Delta-E=       -0.052603306056 Rises=F Damp=F
 DIIS: error= 7.23D-03 at cycle   3 NSaved=   3.
 B matrix at iteration          3
                 1             2             3             4 
      1   0.000000D+00 -0.100000D+01 -0.100000D+01 -0.100000D+01
      2  -0.100000D+01 -0.286091D+00 -0.311314D-01 -0.211221D-01
      3  -0.100000D+01 -0.311314D-01 -0.275086D-01  0.132925D-02
      4  -0.100000D+01 -0.211221D-01  0.132925D-02 -0.316240D-02
 Tr matrix at iteration          3
                 1             2             3             4 
      1  -0.169893D+03  0.000000D+00  0.000000D+00  0.000000D+00
      2   0.000000D+00 -0.467113D+02 -0.470413D+02 -0.470160D+02
      3   0.100000D+01 -0.457162D+02 -0.461253D+02 -0.461513D+02
      4   0.000000D+00 -0.460152D+02 -0.464757D+02 -0.465022D+02
 BE matrix at iteration          3
                 1             2             3             4 
      1   0.000000D+00 -0.100000D+01 -0.100000D+01 -0.100000D+01
      2  -0.100000D+01  0.000000D+00 -0.790883D-01 -0.182288D+00
      3  -0.100000D+01 -0.790883D-01  0.000000D+00 -0.496359D-03
      4  -0.100000D+01 -0.182288D+00 -0.496359D-03  0.000000D+00
 NSaved= 3 IEnMin= 3 EnMin= -169.945310480342     IErMin= 3 ErrMin= 7.23D-03
 ErrMax= 7.23D-03  0.00D+00 EMaxC= 1.00D-01 BMatC= 3.16D-03 BMatP= 2.75D-02
 IDIUse=3 WtCom= 9.28D-01 WtEn= 7.23D-02
 Inv2:  IOpt= 1 Iter= 1 AM= 3.40D-15 Conv= 1.00D-12.
  NMat       2 lam      0.000000      B12    -0.079088
  NMat       3 lam      0.000000      B12    -0.000496
 UpdtCf It   0X -169.9453105      0.00000000  0.00000000  1.00000000
  NMat       2 lam      0.000000      B12    -0.000496
  NMat       1 lam      0.000000      B12    -0.182288
 UpdtCf It   0Y -169.9453105      0.00000000  0.00000000  1.00000000
 EnCoef: B12 -0.4963591D-03 lambda  0.000000
  NMat       1 lam      0.000000      B12    -0.182288
  NMat       2 lam      0.000000      B12    -0.000496
  NMat       3 lam      0.000000      B12     0.000000
 UpdtCf It   1F -169.9453105      0.00000000  0.00000000  1.00000000
  NMat       3 lam      0.000000      B12     0.000000
  NMat       2 lam      0.000000      B12    -0.000496
  NMat       1 lam      0.000000      B12    -0.182288
 UpdtCf It   1B -169.9453105      0.00000000  0.00000000  1.00000000
 Eold -169.8927071743     Efwd -169.9453104803     Ebck -169.9453104803    
 Coeff-Com: -0.827D-01 0.171D+00 0.912D+00
 Coeff-En:   0.000D+00 0.000D+00 0.100D+01
 Coeff:     -0.768D-01 0.158D+00 0.918D+00
 NOrbs=   107 LenY=   104820192 NE2=      979627 LScr= 7
 RMSDP=9.37D-04 MaxDP=1.73D-02 DE=-5.26D-02 OVMax= 0.00D+00

 Cycle   4  Pass 1  IDiag  1:
 One-electron energy=-0.181491361652D+04
 RMSU=  5.23D-04    CP:  9.90D-01  1.15D+00  1.02D+00
 FoF2E:  PMaxA= 9.69D-03S
 Calling FoFJK with Acc= 0.00D+00 ICntrl=       0.
 FoF2E:  FMaxA= 2.15D-02S
 ChkPGP:  NMat=1 NMatS=1 NMatT=0
 EA= 0.745095742739E-03  0.00000000000      0.00000000000      0.00000000000    
 EB= 0.745095742739E-03  0.00000000000      0.00000000000      0.00000000000    
 ETotA= 0.745095742739E-03 ETotB= 0.745095742739E-03
 1/2 <PG(P)>=           0.000745095743
 IMat=  1 1/2 <PG(P)>=         861.040978113379
 IMat=  1 EOne=-0.181491361652D+04 ETwo= 0.861040978113D+03 Energy=-0.953872638409D+03
 1/2 <PG(P)>=         861.040978113379
 E= -169.952493751086     Delta-E=       -0.007183270744 Rises=F Damp=F
 DIIS: error= 1.68D-03 at cycle   4 NSaved=   4.
 B matrix at iteration          4
                 1             2             3             4             5 
      1   0.000000D+00 -0.100000D+01 -0.100000D+01 -0.100000D+01 -0.100000D+01
      2  -0.100000D+01 -0.286091D+00 -0.311314D-01 -0.211221D-01 -0.751908D-03
      3  -0.100000D+01 -0.311314D-01 -0.275086D-01  0.132925D-02 -0.104748D-02
      4  -0.100000D+01 -0.211221D-01  0.132925D-02 -0.316240D-02  0.219049D-04
      5  -0.100000D+01 -0.751908D-03 -0.104748D-02  0.219049D-04 -0.154742D-03
 Tr matrix at iteration          4
                 1             2             3             4             5 
      1  -0.169945D+03  0.000000D+00  0.000000D+00  0.000000D+00  0.000000D+00
      2   0.000000D+00 -0.467113D+02 -0.470413D+02 -0.470160D+02 -0.470090D+02
      3   0.000000D+00 -0.457162D+02 -0.461253D+02 -0.461513D+02 -0.461480D+02
      4   0.100000D+01 -0.460152D+02 -0.464757D+02 -0.465022D+02 -0.465058D+02
      5   0.000000D+00 -0.459148D+02 -0.463787D+02 -0.464122D+02 -0.464158D+02
 BE matrix at iteration          4
                 1             2             3             4             5 
      1   0.000000D+00 -0.100000D+01 -0.100000D+01 -0.100000D+01 -0.100000D+01
      2  -0.100000D+01  0.000000D+00 -0.790883D-01 -0.182288D+00 -0.203306D+00
      3  -0.100000D+01 -0.790883D-01  0.000000D+00 -0.496359D-03 -0.143880D-01
      4  -0.100000D+01 -0.182288D+00 -0.496359D-03  0.000000D+00 -0.238556D-05
      5  -0.100000D+01 -0.203306D+00 -0.143880D-01 -0.238556D-05  0.000000D+00
 NSaved= 4 IEnMin= 4 EnMin= -169.952493751086     IErMin= 4 ErrMin= 1.68D-03
 ErrMax= 1.68D-03  0.00D+00 EMaxC= 1.00D-01 BMatC= 1.55D-04 BMatP= 3.16D-03
 IDIUse=3 WtCom= 9.83D-01 WtEn= 1.68D-02
 Inv2:  IOpt= 1 Iter= 1 AM= 7.61D-13 Conv= 1.00D-12.
  NMat       2 lam      0.000000      B12    -0.079088
  NMat       3 lam      0.000000      B12    -0.000496
  NMat       4 lam      0.000000      B12    -0.000002
 UpdtCf It   0X -169.9524938      0.00000000  0.00000000  0.00000000  1.00000000
  NMat       3 lam      0.000000      B12    -0.000002
  NMat       2 lam      0.000000      B12    -0.014388
  NMat       1 lam      0.000000      B12    -0.203306
 UpdtCf It   0Y -169.9524938      0.00000000  0.00000000  0.00000000  1.00000000
 EnCoef: B12 -0.2385560D-05 lambda  0.000000
  NMat       1 lam      0.000000      B12    -0.203306
  NMat       2 lam      0.000000      B12    -0.014388
  NMat       3 lam      0.000000      B12    -0.000002
  NMat       4 lam      0.000000      B12     0.000000
 UpdtCf It   1F -169.9524938      0.00000000  0.00000000  0.00000000  1.00000000
  NMat       4 lam      0.000000      B12     0.000000
  NMat       3 lam      0.000000      B12    -0.000002
  NMat       2 lam      0.000000      B12    -0.014388
  NMat       1 lam      0.000000      B12    -0.203306
 UpdtCf It   1B -169.9524938      0.00000000  0.00000000  0.00000000  1.00000000
 Eold -169.9453104803     Efwd -169.9524937511     Ebck -169.9524937511    
 Coeff-Com: -0.356D-02-0.259D-01 0.574D-01 0.972D+00
 Coeff-En:   0.000D+00 0.000D+00 0.000D+00 0.100D+01
 Coeff:     -0.350D-02-0.254D-01 0.564D-01 0.973D+00
 NOrbs=   107 LenY=   104820192 NE2=      979627 LScr= 7
 RMSDP=2.53D-04 MaxDP=5.66D-03 DE=-7.18D-03 OVMax= 0.00D+00

 Cycle   5  Pass 1  IDiag  1:
 One-electron energy=-0.181488219328D+04
 RMSU=  1.59D-04    CP:  9.89D-01  1.15D+00  1.10D+00  1.12D+00
 FoF2E:  PMaxA= 3.92D-03S
 Calling FoFJK with Acc= 0.00D+00 ICntrl=       0.
 FoF2E:  FMaxA= 3.08D-03S
 ChkPGP:  NMat=1 NMatS=1 NMatT=0
 EA= 0.314594075048E-04  0.00000000000      0.00000000000      0.00000000000    
 EB= 0.314594075048E-04  0.00000000000      0.00000000000      0.00000000000    
 ETotA= 0.314594075048E-04 ETotB= 0.314594075048E-04
 1/2 <PG(P)>=           0.000031459408
 IMat=  1 1/2 <PG(P)>=         861.009069354090
 IMat=  1 EOne=-0.181488219328D+04 ETwo= 0.861009069354D+03 Energy=-0.953873123924D+03
 1/2 <PG(P)>=         861.009069354090
 E= -169.952979265369     Delta-E=       -0.000485514283 Rises=F Damp=F
 DIIS: error= 5.04D-04 at cycle   5 NSaved=   5.
 B matrix at iteration          5
                 1             2             3             4             5 
      1   0.000000D+00 -0.100000D+01 -0.100000D+01 -0.100000D+01 -0.100000D+01
      2  -0.100000D+01 -0.286091D+00 -0.311314D-01 -0.211221D-01 -0.751908D-03
      3  -0.100000D+01 -0.311314D-01 -0.275086D-01  0.132925D-02 -0.104748D-02
      4  -0.100000D+01 -0.211221D-01  0.132925D-02 -0.316240D-02  0.219049D-04
      5  -0.100000D+01 -0.751908D-03 -0.104748D-02  0.219049D-04 -0.154742D-03
      6  -0.100000D+01 -0.430763D-03 -0.621439D-06 -0.160954D-03 -0.337734D-05
                 6 
      1  -0.100000D+01
      2  -0.430763D-03
      3  -0.621439D-06
      4  -0.160954D-03
      5  -0.337734D-05
      6  -0.200034D-04
 Tr matrix at iteration          5
                 1             2             3             4             5 
      1  -0.169952D+03  0.000000D+00  0.000000D+00  0.000000D+00  0.000000D+00
      2   0.000000D+00 -0.467113D+02 -0.470413D+02 -0.470160D+02 -0.470090D+02
      3   0.000000D+00 -0.457162D+02 -0.461253D+02 -0.461513D+02 -0.461480D+02
      4   0.000000D+00 -0.460152D+02 -0.464757D+02 -0.465022D+02 -0.465058D+02
      5   0.100000D+01 -0.459148D+02 -0.463787D+02 -0.464122D+02 -0.464158D+02
      6   0.000000D+00 -0.459269D+02 -0.463937D+02 -0.464275D+02 -0.464318D+02
                 6 
      1   0.000000D+00
      2  -0.470055D+02
      3  -0.461472D+02
      4  -0.465054D+02
      5  -0.464160D+02
      6  -0.464320D+02
 BE matrix at iteration          5
                 1             2             3             4             5 
      1   0.000000D+00 -0.100000D+01 -0.100000D+01 -0.100000D+01 -0.100000D+01
      2  -0.100000D+01  0.000000D+00 -0.790883D-01 -0.182288D+00 -0.203306D+00
      3  -0.100000D+01 -0.790883D-01  0.000000D+00 -0.496359D-03 -0.143880D-01
      4  -0.100000D+01 -0.182288D+00 -0.496359D-03  0.000000D+00 -0.238556D-05
      5  -0.100000D+01 -0.203306D+00 -0.143880D-01 -0.238556D-05  0.000000D+00
      6  -0.100000D+01 -0.210958D+00 -0.163771D-01 -0.129393D-02 -0.627615D-04
                 6 
      1  -0.100000D+01
      2  -0.210958D+00
      3  -0.163771D-01
      4  -0.129393D-02
      5  -0.627615D-04
      6   0.000000D+00
 NSaved= 5 IEnMin= 5 EnMin= -169.952979265369     IErMin= 5 ErrMin= 5.04D-04
 ErrMax= 5.04D-04  0.00D+00 EMaxC= 1.00D-01 BMatC= 2.00D-05 BMatP= 1.55D-04
 IDIUse=3 WtCom= 9.95D-01 WtEn= 5.04D-03
 Inv2:  IOpt= 1 Iter= 1 AM= 5.83D-12 Conv= 1.00D-12.
 Inv2:  IOpt= 1 Iter= 2 AM= 2.93D-27 Conv= 1.00D-12.
  NMat       2 lam      0.000000      B12    -0.079088
  NMat       3 lam      0.000000      B12    -0.000496
  NMat       4 lam      0.000000      B12    -0.000002
  NMat       5 lam      0.000000      B12    -0.000063
 UpdtCf It   0X -169.9529793      0.00000000  0.00000000  0.00000000  0.00000000  1.00000000
  NMat       4 lam      0.000000      B12    -0.000063
  NMat       3 lam      0.000000      B12    -0.001294
  NMat       2 lam      0.000000      B12    -0.016377
  NMat       1 lam      0.000000      B12    -0.210958
 UpdtCf It   0Y -169.9529793      0.00000000  0.00000000  0.00000000  0.00000000  1.00000000
 EnCoef: B12 -0.6276145D-04 lambda  0.000000
  NMat       1 lam      0.000000      B12    -0.210958
  NMat       2 lam      0.000000      B12    -0.016377
  NMat       3 lam      0.000000      B12    -0.001294
  NMat       4 lam      0.000000      B12    -0.000063
  NMat       5 lam      0.000000      B12     0.000000
 UpdtCf It   1F -169.9529793      0.00000000  0.00000000  0.00000000  0.00000000  1.00000000
  NMat       5 lam      0.000000      B12     0.000000
  NMat       4 lam      0.000000      B12    -0.000063
  NMat       3 lam      0.000000      B12    -0.001294
  NMat       2 lam      0.000000      B12    -0.016377
  NMat       1 lam      0.000000      B12    -0.210958
 UpdtCf It   1B -169.9529793      0.00000000  0.00000000  0.00000000  0.00000000  1.00000000
 Eold -169.9524937511     Efwd -169.9529792654     Ebck -169.9529792654    
 Coeff-Com:  0.922D-02-0.192D-01-0.121D+00 0.828D-01 0.105D+01
 Coeff-En:   0.000D+00 0.000D+00 0.000D+00 0.000D+00 0.100D+01
 Coeff:      0.917D-02-0.191D-01-0.120D+00 0.824D-01 0.105D+01
 NOrbs=   107 LenY=   104820192 NE2=      979627 LScr= 7
 RMSDP=1.16D-04 MaxDP=2.41D-03 DE=-4.86D-04 OVMax= 0.00D+00

 Cycle   6  Pass 1  IDiag  1:
 One-electron energy=-0.181488796896D+04
 RMSU=  4.09D-05    CP:  9.89D-01  1.15D+00  1.12D+00  1.28D+00  1.19D+00
 FoF2E:  PMaxA= 8.70D-04S
 Calling FoFJK with Acc= 0.00D+00 ICntrl=       0.
 FoF2E:  FMaxA= 1.59D-03S
 ChkPGP:  NMat=1 NMatS=1 NMatT=0
 EA= 0.508573673623E-05  0.00000000000      0.00000000000      0.00000000000    
 EB= 0.508573673623E-05  0.00000000000      0.00000000000      0.00000000000    
 ETotA= 0.508573673623E-05 ETotB= 0.508573673623E-05
 1/2 <PG(P)>=           0.000005085737
 IMat=  1 1/2 <PG(P)>=         861.014772039776
 IMat=  1 EOne=-0.181488796896D+04 ETwo= 0.861014772040D+03 Energy=-0.953873196922D+03
 1/2 <PG(P)>=         861.014772039776
 E= -169.953052263403     Delta-E=       -0.000072998034 Rises=F Damp=F
 DIIS: error= 1.16D-04 at cycle   6 NSaved=   6.
 B matrix at iteration          6
                 1             2             3             4             5 
      1   0.000000D+00 -0.100000D+01 -0.100000D+01 -0.100000D+01 -0.100000D+01
      2  -0.100000D+01 -0.286091D+00 -0.311314D-01 -0.211221D-01 -0.751908D-03
      3  -0.100000D+01 -0.311314D-01 -0.275086D-01  0.132925D-02 -0.104748D-02
      4  -0.100000D+01 -0.211221D-01  0.132925D-02 -0.316240D-02  0.219049D-04
      5  -0.100000D+01 -0.751908D-03 -0.104748D-02  0.219049D-04 -0.154742D-03
      6  -0.100000D+01 -0.430763D-03 -0.621439D-06 -0.160954D-03 -0.337734D-05
      7  -0.100000D+01 -0.128086D-03  0.313743D-04 -0.292045D-04 -0.396104D-05
                 6             7 
      1  -0.100000D+01 -0.100000D+01
      2  -0.430763D-03 -0.128086D-03
      3  -0.621439D-06  0.313743D-04
      4  -0.160954D-03 -0.292045D-04
      5  -0.337734D-05 -0.396104D-05
      6  -0.200034D-04 -0.190894D-05
      7  -0.190894D-05 -0.937845D-06
 Tr matrix at iteration          6
                 1             2             3             4             5 
      1  -0.169953D+03  0.000000D+00  0.000000D+00  0.000000D+00  0.000000D+00
      2   0.000000D+00 -0.467113D+02 -0.470413D+02 -0.470160D+02 -0.470090D+02
      3   0.000000D+00 -0.457162D+02 -0.461253D+02 -0.461513D+02 -0.461480D+02
      4   0.000000D+00 -0.460152D+02 -0.464757D+02 -0.465022D+02 -0.465058D+02
      5   0.000000D+00 -0.459148D+02 -0.463787D+02 -0.464122D+02 -0.464158D+02
      6   0.100000D+01 -0.459269D+02 -0.463937D+02 -0.464275D+02 -0.464318D+02
      7   0.000000D+00 -0.459226D+02 -0.463902D+02 -0.464245D+02 -0.464288D+02
                 6             7 
      1   0.000000D+00  0.000000D+00
      2  -0.470055D+02 -0.470041D+02
      3  -0.461472D+02 -0.461466D+02
      4  -0.465054D+02 -0.465052D+02
      5  -0.464160D+02 -0.464160D+02
      6  -0.464320D+02 -0.464321D+02
      7  -0.464292D+02 -0.464292D+02
 BE matrix at iteration          6
                 1             2             3             4             5 
      1   0.000000D+00 -0.100000D+01 -0.100000D+01 -0.100000D+01 -0.100000D+01
      2  -0.100000D+01  0.000000D+00 -0.790883D-01 -0.182288D+00 -0.203306D+00
      3  -0.100000D+01 -0.790883D-01  0.000000D+00 -0.496359D-03 -0.143880D-01
      4  -0.100000D+01 -0.182288D+00 -0.496359D-03  0.000000D+00 -0.238556D-05
      5  -0.100000D+01 -0.203306D+00 -0.143880D-01 -0.238556D-05  0.000000D+00
      6  -0.100000D+01 -0.210958D+00 -0.163771D-01 -0.129393D-02 -0.627615D-04
      7  -0.100000D+01 -0.213768D+00 -0.177291D-01 -0.172606D-02 -0.243221D-03
                 6             7 
      1  -0.100000D+01 -0.100000D+01
      2  -0.210958D+00 -0.213768D+00
      3  -0.163771D-01 -0.177291D-01
      4  -0.129393D-02 -0.172606D-02
      5  -0.627615D-04 -0.243221D-03
      6   0.000000D+00 -0.261987D-04
      7  -0.261987D-04  0.000000D+00
 NSaved= 6 IEnMin= 6 EnMin= -169.953052263403     IErMin= 6 ErrMin= 1.16D-04
 ErrMax= 1.16D-04  0.00D+00 EMaxC= 1.00D-01 BMatC= 9.38D-07 BMatP= 2.00D-05
 IDIUse=3 WtCom= 9.99D-01 WtEn= 1.16D-03
 Inv2:  IOpt= 1 Iter= 1 AM= 2.71D-10 Conv= 1.00D-12.
 Inv2:  IOpt= 1 Iter= 2 AM= 5.26D-25 Conv= 1.00D-12.
  NMat       2 lam      0.000000      B12    -0.079088
  NMat       3 lam      0.000000      B12    -0.000496
  NMat       4 lam      0.000000      B12    -0.000002
  NMat       5 lam      0.000000      B12    -0.000063
  NMat       6 lam      0.000000      B12    -0.000026
 UpdtCf It   0X -169.9530523      0.00000000  0.00000000  0.00000000  0.00000000  0.00000000  1.00000000
  NMat       5 lam      0.000000      B12    -0.000026
  NMat       4 lam      0.000000      B12    -0.000243
  NMat       3 lam      0.000000      B12    -0.001726
  NMat       2 lam      0.000000      B12    -0.017729
  NMat       1 lam      0.000000      B12    -0.213768
 UpdtCf It   0Y -169.9530523      0.00000000  0.00000000  0.00000000  0.00000000  0.00000000  1.00000000
 EnCoef: B12 -0.2619869D-04 lambda  0.000000
  NMat       1 lam      0.000000      B12    -0.213768
  NMat       2 lam      0.000000      B12    -0.017729
  NMat       3 lam      0.000000      B12    -0.001726
  NMat       4 lam      0.000000      B12    -0.000243
  NMat       5 lam      0.000000      B12    -0.000026
  NMat       6 lam      0.000000      B12     0.000000
 UpdtCf It   1F -169.9530523      0.00000000  0.00000000  0.00000000  0.00000000  0.00000000  1.00000000
  NMat       6 lam      0.000000      B12     0.000000
  NMat       5 lam      0.000000      B12    -0.000026
  NMat       4 lam      0.000000      B12    -0.000243
  NMat       3 lam      0.000000      B12    -0.001726
  NMat       2 lam      0.000000      B12    -0.017729
  NMat       1 lam      0.000000      B12    -0.213768
 UpdtCf It   1B -169.9530523      0.00000000  0.00000000  0.00000000  0.00000000  0.00000000  1.00000000
 Eold -169.9529792654     Efwd -169.9530522634     Ebck -169.9530522634    
 Coeff-Com:  0.379D-03 0.158D-02-0.129D-01-0.379D-01 0.285D-01 0.102D+01
 Coeff-En:   0.000D+00 0.000D+00 0.000D+00 0.000D+00 0.000D+00 0.100D+01
 Coeff:      0.379D-03 0.157D-02-0.128D-01-0.379D-01 0.284D-01 0.102D+01
 NOrbs=   107 LenY=   104820192 NE2=      979627 LScr= 7
 RMSDP=2.50D-05 MaxDP=4.20D-04 DE=-7.30D-05 OVMax= 0.00D+00

 Cycle   7  Pass 1  IDiag  1:
 One-electron energy=-0.181488874704D+04
 RMSU=  1.24D-05    CP:  9.89D-01  1.16D+00  1.13D+00  1.30D+00  1.28D+00
                    CP:  1.15D+00
 FoF2E:  PMaxA= 1.84D-04S
 Calling FoFJK with Acc= 0.00D+00 ICntrl=       0.
 FoF2E:  FMaxA= 2.78D-04S
 ChkPGP:  NMat=1 NMatS=1 NMatT=0
 EA= 0.721239108095E-07  0.00000000000      0.00000000000      0.00000000000    
 EB= 0.721239108095E-07  0.00000000000      0.00000000000      0.00000000000    
 ETotA= 0.721239108095E-07 ETotB= 0.721239108095E-07
 1/2 <PG(P)>=           0.000000072124
 IMat=  1 1/2 <PG(P)>=         861.015546679756
 IMat=  1 EOne=-0.181488874704D+04 ETwo= 0.861015546680D+03 Energy=-0.953873200360D+03
 1/2 <PG(P)>=         861.015546679756
 E= -169.953055701792     Delta-E=       -0.000003438389 Rises=F Damp=F
 DIIS: error= 2.83D-05 at cycle   7 NSaved=   7.
 B matrix at iteration          7
                 1             2             3             4             5 
      1   0.000000D+00 -0.100000D+01 -0.100000D+01 -0.100000D+01 -0.100000D+01
      2  -0.100000D+01 -0.286091D+00 -0.311314D-01 -0.211221D-01 -0.751908D-03
      3  -0.100000D+01 -0.311314D-01 -0.275086D-01  0.132925D-02 -0.104748D-02
      4  -0.100000D+01 -0.211221D-01  0.132925D-02 -0.316240D-02  0.219049D-04
      5  -0.100000D+01 -0.751908D-03 -0.104748D-02  0.219049D-04 -0.154742D-03
      6  -0.100000D+01 -0.430763D-03 -0.621439D-06 -0.160954D-03 -0.337734D-05
      7  -0.100000D+01 -0.128086D-03  0.313743D-04 -0.292045D-04 -0.396104D-05
      8  -0.100000D+01 -0.110119D-04  0.560764D-05 -0.316062D-05  0.525614D-06
                 6             7             8 
      1  -0.100000D+01 -0.100000D+01 -0.100000D+01
      2  -0.430763D-03 -0.128086D-03 -0.110119D-04
      3  -0.621439D-06  0.313743D-04  0.560764D-05
      4  -0.160954D-03 -0.292045D-04 -0.316062D-05
      5  -0.337734D-05 -0.396104D-05  0.525614D-06
      6  -0.200034D-04 -0.190894D-05 -0.629349D-06
      7  -0.190894D-05 -0.937845D-06 -0.679454D-07
      8  -0.629349D-06 -0.679454D-07 -0.806364D-07
 Tr matrix at iteration          7
                 1             2             3             4             5 
      1  -0.169953D+03  0.000000D+00  0.000000D+00  0.000000D+00  0.000000D+00
      2   0.000000D+00 -0.467113D+02 -0.470413D+02 -0.470160D+02 -0.470090D+02
      3   0.000000D+00 -0.457162D+02 -0.461253D+02 -0.461513D+02 -0.461480D+02
      4   0.000000D+00 -0.460152D+02 -0.464757D+02 -0.465022D+02 -0.465058D+02
      5   0.000000D+00 -0.459148D+02 -0.463787D+02 -0.464122D+02 -0.464158D+02
      6   0.000000D+00 -0.459269D+02 -0.463937D+02 -0.464275D+02 -0.464318D+02
      7   0.100000D+01 -0.459226D+02 -0.463902D+02 -0.464245D+02 -0.464288D+02
      8   0.000000D+00 -0.459221D+02 -0.463897D+02 -0.464240D+02 -0.464284D+02
                 6             7             8 
      1   0.000000D+00  0.000000D+00  0.000000D+00
      2  -0.470055D+02 -0.470041D+02 -0.470039D+02
      3  -0.461472D+02 -0.461466D+02 -0.461465D+02
      4  -0.465054D+02 -0.465052D+02 -0.465052D+02
      5  -0.464160D+02 -0.464160D+02 -0.464160D+02
      6  -0.464320D+02 -0.464321D+02 -0.464320D+02
      7  -0.464292D+02 -0.464292D+02 -0.464292D+02
      8  -0.464288D+02 -0.464288D+02 -0.464288D+02
 BE matrix at iteration          7
                 1             2             3             4             5 
      1   0.000000D+00 -0.100000D+01 -0.100000D+01 -0.100000D+01 -0.100000D+01
      2  -0.100000D+01  0.000000D+00 -0.790883D-01 -0.182288D+00 -0.203306D+00
      3  -0.100000D+01 -0.790883D-01  0.000000D+00 -0.496359D-03 -0.143880D-01
      4  -0.100000D+01 -0.182288D+00 -0.496359D-03  0.000000D+00 -0.238556D-05
      5  -0.100000D+01 -0.203306D+00 -0.143880D-01 -0.238556D-05  0.000000D+00
      6  -0.100000D+01 -0.210958D+00 -0.163771D-01 -0.129393D-02 -0.627615D-04
      7  -0.100000D+01 -0.213768D+00 -0.177291D-01 -0.172606D-02 -0.243221D-03
      8  -0.100000D+01 -0.214175D+00 -0.179701D-01 -0.181153D-02 -0.279674D-03
                 6             7             8 
      1  -0.100000D+01 -0.100000D+01 -0.100000D+01
      2  -0.210958D+00 -0.213768D+00 -0.214175D+00
      3  -0.163771D-01 -0.177291D-01 -0.179701D-01
      4  -0.129393D-02 -0.172606D-02 -0.181153D-02
      5  -0.627615D-04 -0.243221D-03 -0.279674D-03
      6   0.000000D+00 -0.261987D-04 -0.407756D-04
      7  -0.261987D-04  0.000000D+00 -0.123651D-05
      8  -0.407756D-04 -0.123651D-05  0.000000D+00
 NSaved= 7 IEnMin= 7 EnMin= -169.953055701792     IErMin= 7 ErrMin= 2.83D-05
 ErrMax= 2.83D-05  0.00D+00 EMaxC= 1.00D-01 BMatC= 8.06D-08 BMatP= 9.38D-07
 IDIUse=1 WtCom= 1.00D+00 WtEn= 0.00D+00
 Inv2:  IOpt= 1 Iter= 1 AM= 7.34D-10 Conv= 1.00D-12.
 Inv2:  IOpt= 1 Iter= 2 AM= 2.86D-24 Conv= 1.00D-12.
 Coeff-Com: -0.681D-03 0.143D-02 0.811D-02-0.396D-03-0.843D-01 0.326D-01
 Coeff-Com:  0.104D+01
 Coeff-En:   0.000D+00 0.000D+00 0.000D+00 0.000D+00 0.000D+00 0.000D+00
 Coeff-En:   0.000D+00
 Coeff:     -0.681D-03 0.143D-02 0.811D-02-0.396D-03-0.843D-01 0.326D-01
 Coeff:      0.104D+01
 NOrbs=   107 LenY=   104820192 NE2=      979627 LScr= 7
 RMSDP=7.95D-06 MaxDP=1.28D-04 DE=-3.44D-06 OVMax= 0.00D+00

 Cycle   8  Pass 1  IDiag  1:
 One-electron energy=-0.181488875385D+04
 RMSU=  3.88D-06    CP:  9.89D-01  1.16D+00  1.13D+00  1.31D+00  1.30D+00
                    CP:  1.26D+00  1.26D+00
 FoF2E:  PMaxA= 4.86D-05S
 Calling FoFJK with Acc= 0.00D+00 ICntrl=       0.
 FoF2E:  FMaxA= 9.58D-05S
 ChkPGP:  NMat=1 NMatS=1 NMatT=0
 EA= 0.155236261018E-07  0.00000000000      0.00000000000      0.00000000000    
 EB= 0.155236261018E-07  0.00000000000      0.00000000000      0.00000000000    
 ETotA= 0.155236261018E-07 ETotB= 0.155236261018E-07
 1/2 <PG(P)>=           0.000000015524
 IMat=  1 1/2 <PG(P)>=         861.015553128141
 IMat=  1 EOne=-0.181488875385D+04 ETwo= 0.861015553128D+03 Energy=-0.953873200721D+03
 1/2 <PG(P)>=         861.015553128141
 E= -169.953056062541     Delta-E=       -0.000000360749 Rises=F Damp=F
 DIIS: error= 8.85D-06 at cycle   8 NSaved=   8.
 B matrix at iteration          8
                 1             2             3             4             5 
      1   0.000000D+00 -0.100000D+01 -0.100000D+01 -0.100000D+01 -0.100000D+01
      2  -0.100000D+01 -0.286091D+00 -0.311314D-01 -0.211221D-01 -0.751908D-03
      3  -0.100000D+01 -0.311314D-01 -0.275086D-01  0.132925D-02 -0.104748D-02
      4  -0.100000D+01 -0.211221D-01  0.132925D-02 -0.316240D-02  0.219049D-04
      5  -0.100000D+01 -0.751908D-03 -0.104748D-02  0.219049D-04 -0.154742D-03
      6  -0.100000D+01 -0.430763D-03 -0.621439D-06 -0.160954D-03 -0.337734D-05
      7  -0.100000D+01 -0.128086D-03  0.313743D-04 -0.292045D-04 -0.396104D-05
      8  -0.100000D+01 -0.110119D-04  0.560764D-05 -0.316062D-05  0.525614D-06
      9  -0.100000D+01  0.329940D-05  0.440701D-06 -0.192258D-06  0.345412D-07
                 6             7             8             9 
      1  -0.100000D+01 -0.100000D+01 -0.100000D+01 -0.100000D+01
      2  -0.430763D-03 -0.128086D-03 -0.110119D-04  0.329940D-05
      3  -0.621439D-06  0.313743D-04  0.560764D-05  0.440701D-06
      4  -0.160954D-03 -0.292045D-04 -0.316062D-05 -0.192258D-06
      5  -0.337734D-05 -0.396104D-05  0.525614D-06  0.345412D-07
      6  -0.200034D-04 -0.190894D-05 -0.629349D-06 -0.118288D-06
      7  -0.190894D-05 -0.937845D-06 -0.679454D-07 -0.367459D-07
      8  -0.629349D-06 -0.679454D-07 -0.806364D-07 -0.143207D-07
      9  -0.118288D-06 -0.367459D-07 -0.143207D-07 -0.779093D-08
 Tr matrix at iteration          8
                 1             2             3             4             5 
      1  -0.169953D+03  0.000000D+00  0.000000D+00  0.000000D+00  0.000000D+00
      2   0.000000D+00 -0.467113D+02 -0.470413D+02 -0.470160D+02 -0.470090D+02
      3   0.000000D+00 -0.457162D+02 -0.461253D+02 -0.461513D+02 -0.461480D+02
      4   0.000000D+00 -0.460152D+02 -0.464757D+02 -0.465022D+02 -0.465058D+02
      5   0.000000D+00 -0.459148D+02 -0.463787D+02 -0.464122D+02 -0.464158D+02
      6   0.000000D+00 -0.459269D+02 -0.463937D+02 -0.464275D+02 -0.464318D+02
      7   0.100000D+01 -0.459226D+02 -0.463902D+02 -0.464245D+02 -0.464288D+02
      8   0.000000D+00 -0.459221D+02 -0.463897D+02 -0.464240D+02 -0.464284D+02
      9   0.000000D+00 -0.459220D+02 -0.463896D+02 -0.464240D+02 -0.464284D+02
                 6             7             8             9 
      1   0.000000D+00  0.000000D+00  0.000000D+00  0.000000D+00
      2  -0.470055D+02 -0.470041D+02 -0.470039D+02 -0.470039D+02
      3  -0.461472D+02 -0.461466D+02 -0.461465D+02 -0.461465D+02
      4  -0.465054D+02 -0.465052D+02 -0.465052D+02 -0.465052D+02
      5  -0.464160D+02 -0.464160D+02 -0.464160D+02 -0.464160D+02
      6  -0.464320D+02 -0.464321D+02 -0.464320D+02 -0.464320D+02
      7  -0.464292D+02 -0.464292D+02 -0.464292D+02 -0.464292D+02
      8  -0.464288D+02 -0.464288D+02 -0.464288D+02 -0.464288D+02
      9  -0.464288D+02 -0.464288D+02 -0.464288D+02 -0.464288D+02
 BE matrix at iteration          8
                 1             2             3             4             5 
      1   0.000000D+00 -0.100000D+01 -0.100000D+01 -0.100000D+01 -0.100000D+01
      2  -0.100000D+01  0.000000D+00 -0.790883D-01 -0.182288D+00 -0.203306D+00
      3  -0.100000D+01 -0.790883D-01  0.000000D+00 -0.496359D-03 -0.143880D-01
      4  -0.100000D+01 -0.182288D+00 -0.496359D-03  0.000000D+00 -0.238556D-05
      5  -0.100000D+01 -0.203306D+00 -0.143880D-01 -0.238556D-05  0.000000D+00
      6  -0.100000D+01 -0.210958D+00 -0.163771D-01 -0.129393D-02 -0.627615D-04
      7  -0.100000D+01 -0.213768D+00 -0.177291D-01 -0.172606D-02 -0.243221D-03
      8  -0.100000D+01 -0.214175D+00 -0.179701D-01 -0.181153D-02 -0.279674D-03
      9  -0.100000D+01 -0.214216D+00 -0.180029D-01 -0.182509D-02 -0.287951D-03
                 6             7             8             9 
      1  -0.100000D+01 -0.100000D+01 -0.100000D+01 -0.100000D+01
      2  -0.210958D+00 -0.213768D+00 -0.214175D+00 -0.214216D+00
      3  -0.163771D-01 -0.177291D-01 -0.179701D-01 -0.180029D-01
      4  -0.129393D-02 -0.172606D-02 -0.181153D-02 -0.182509D-02
      5  -0.627615D-04 -0.243221D-03 -0.279674D-03 -0.287951D-03
      6   0.000000D+00 -0.261987D-04 -0.407756D-04 -0.439851D-04
      7  -0.261987D-04  0.000000D+00 -0.123651D-05 -0.224197D-05
      8  -0.407756D-04 -0.123651D-05  0.000000D+00 -0.130990D-06
      9  -0.439851D-04 -0.224197D-05 -0.130990D-06  0.000000D+00
 NSaved= 8 IEnMin= 8 EnMin= -169.953056062541     IErMin= 8 ErrMin= 8.85D-06
 ErrMax= 8.85D-06  0.00D+00 EMaxC= 1.00D-01 BMatC= 7.79D-09 BMatP= 8.06D-08
 IDIUse=1 WtCom= 1.00D+00 WtEn= 0.00D+00
 Inv2:  IOpt= 1 Iter= 1 AM= 3.74D-08 Conv= 1.00D-12.
 Inv2:  IOpt= 1 Iter= 2 AM= 1.25D-22 Conv= 1.00D-12.
 Coeff-Com: -0.127D-04-0.122D-03 0.994D-03 0.298D-02-0.630D-02-0.678D-01
 Coeff-Com: -0.600D-01 0.113D+01
 Coeff-En:   0.000D+00 0.000D+00 0.000D+00 0.000D+00 0.000D+00 0.000D+00
 Coeff-En:   0.000D+00 0.000D+00
 Coeff:     -0.127D-04-0.122D-03 0.994D-03 0.298D-02-0.630D-02-0.678D-01
 Coeff:     -0.600D-01 0.113D+01
 NOrbs=   107 LenY=   104820192 NE2=      979627 LScr= 7
 RMSDP=3.63D-06 MaxDP=5.49D-05 DE=-3.61D-07 OVMax= 0.00D+00

 Cycle   9  Pass 1  IDiag  1:
 One-electron energy=-0.181488885962D+04
 RMSU=  1.37D-06    CP:  9.89D-01  1.16D+00  1.13D+00  1.31D+00  1.31D+00
                    CP:  1.30D+00  1.45D+00  1.37D+00
 FoF2E:  PMaxA= 1.98D-05S
 Calling FoFJK with Acc= 0.00D+00 ICntrl=       0.
 FoF2E:  FMaxA= 2.44D-05S
 ChkPGP:  NMat=1 NMatS=1 NMatT=0
 EA=-0.652964754846E-09  0.00000000000      0.00000000000      0.00000000000    
 EB=-0.652964754846E-09  0.00000000000      0.00000000000      0.00000000000    
 ETotA=-0.652964754846E-09 ETotB=-0.652964754846E-09
 1/2 <PG(P)>=          -0.000000000653
 IMat=  1 1/2 <PG(P)>=         861.015658836145
 IMat=  1 EOne=-0.181488885962D+04 ETwo= 0.861015658836D+03 Energy=-0.953873200779D+03
 1/2 <PG(P)>=         861.015658836145
 E= -169.953056121192     Delta-E=       -0.000000058652 Rises=F Damp=F
 DIIS: error= 4.65D-06 at cycle   9 NSaved=   9.
 B matrix at iteration          9
                 1             2             3             4             5 
      1   0.000000D+00 -0.100000D+01 -0.100000D+01 -0.100000D+01 -0.100000D+01
      2  -0.100000D+01 -0.286091D+00 -0.311314D-01 -0.211221D-01 -0.751908D-03
      3  -0.100000D+01 -0.311314D-01 -0.275086D-01  0.132925D-02 -0.104748D-02
      4  -0.100000D+01 -0.211221D-01  0.132925D-02 -0.316240D-02  0.219049D-04
      5  -0.100000D+01 -0.751908D-03 -0.104748D-02  0.219049D-04 -0.154742D-03
      6  -0.100000D+01 -0.430763D-03 -0.621439D-06 -0.160954D-03 -0.337734D-05
      7  -0.100000D+01 -0.128086D-03  0.313743D-04 -0.292045D-04 -0.396104D-05
      8  -0.100000D+01 -0.110119D-04  0.560764D-05 -0.316062D-05  0.525614D-06
      9  -0.100000D+01  0.329940D-05  0.440701D-06 -0.192258D-06  0.345412D-07
     10  -0.100000D+01 -0.726168D-06  0.390058D-06 -0.212046D-06  0.434603D-07
                 6             7             8             9            10 
      1  -0.100000D+01 -0.100000D+01 -0.100000D+01 -0.100000D+01 -0.100000D+01
      2  -0.430763D-03 -0.128086D-03 -0.110119D-04  0.329940D-05 -0.726168D-06
      3  -0.621439D-06  0.313743D-04  0.560764D-05  0.440701D-06  0.390058D-06
      4  -0.160954D-03 -0.292045D-04 -0.316062D-05 -0.192258D-06 -0.212046D-06
      5  -0.337734D-05 -0.396104D-05  0.525614D-06  0.345412D-07  0.434603D-07
      6  -0.200034D-04 -0.190894D-05 -0.629349D-06 -0.118288D-06 -0.281752D-07
      7  -0.190894D-05 -0.937845D-06 -0.679454D-07 -0.367459D-07 -0.481981D-08
      8  -0.629349D-06 -0.679454D-07 -0.806364D-07 -0.143207D-07 -0.638431D-08
      9  -0.118288D-06 -0.367459D-07 -0.143207D-07 -0.779093D-08 -0.206403D-08
     10  -0.281752D-07 -0.481981D-08 -0.638431D-08 -0.206403D-08 -0.134378D-08
 Tr matrix at iteration          9
                 1             2             3             4             5 
      1  -0.169953D+03  0.000000D+00  0.000000D+00  0.000000D+00  0.000000D+00
      2   0.000000D+00 -0.467113D+02 -0.470413D+02 -0.470160D+02 -0.470090D+02
      3   0.000000D+00 -0.457162D+02 -0.461253D+02 -0.461513D+02 -0.461480D+02
      4   0.000000D+00 -0.460152D+02 -0.464757D+02 -0.465022D+02 -0.465058D+02
      5   0.000000D+00 -0.459148D+02 -0.463787D+02 -0.464122D+02 -0.464158D+02
      6   0.000000D+00 -0.459269D+02 -0.463937D+02 -0.464275D+02 -0.464318D+02
      7   0.100000D+01 -0.459226D+02 -0.463902D+02 -0.464245D+02 -0.464288D+02
      8   0.000000D+00 -0.459221D+02 -0.463897D+02 -0.464240D+02 -0.464284D+02
      9   0.000000D+00 -0.459220D+02 -0.463896D+02 -0.464240D+02 -0.464284D+02
     10   0.000000D+00 -0.459220D+02 -0.463896D+02 -0.464240D+02 -0.464283D+02
                 6             7             8             9            10 
      1   0.000000D+00  0.000000D+00  0.000000D+00  0.000000D+00  0.000000D+00
      2  -0.470055D+02 -0.470041D+02 -0.470039D+02 -0.470039D+02 -0.470039D+02
      3  -0.461472D+02 -0.461466D+02 -0.461465D+02 -0.461465D+02 -0.461465D+02
      4  -0.465054D+02 -0.465052D+02 -0.465052D+02 -0.465052D+02 -0.465052D+02
      5  -0.464160D+02 -0.464160D+02 -0.464160D+02 -0.464160D+02 -0.464160D+02
      6  -0.464320D+02 -0.464321D+02 -0.464320D+02 -0.464320D+02 -0.464320D+02
      7  -0.464292D+02 -0.464292D+02 -0.464292D+02 -0.464292D+02 -0.464292D+02
      8  -0.464288D+02 -0.464288D+02 -0.464288D+02 -0.464288D+02 -0.464288D+02
      9  -0.464288D+02 -0.464288D+02 -0.464288D+02 -0.464288D+02 -0.464288D+02
     10  -0.464287D+02 -0.464288D+02 -0.464288D+02 -0.464288D+02 -0.464288D+02
 BE matrix at iteration          9
                 1             2             3             4             5 
      1   0.000000D+00 -0.100000D+01 -0.100000D+01 -0.100000D+01 -0.100000D+01
      2  -0.100000D+01  0.000000D+00 -0.790883D-01 -0.182288D+00 -0.203306D+00
      3  -0.100000D+01 -0.790883D-01  0.000000D+00 -0.496359D-03 -0.143880D-01
      4  -0.100000D+01 -0.182288D+00 -0.496359D-03  0.000000D+00 -0.238556D-05
      5  -0.100000D+01 -0.203306D+00 -0.143880D-01 -0.238556D-05  0.000000D+00
      6  -0.100000D+01 -0.210958D+00 -0.163771D-01 -0.129393D-02 -0.627615D-04
      7  -0.100000D+01 -0.213768D+00 -0.177291D-01 -0.172606D-02 -0.243221D-03
      8  -0.100000D+01 -0.214175D+00 -0.179701D-01 -0.181153D-02 -0.279674D-03
      9  -0.100000D+01 -0.214216D+00 -0.180029D-01 -0.182509D-02 -0.287951D-03
     10  -0.100000D+01 -0.214228D+00 -0.180098D-01 -0.183012D-02 -0.290478D-03
                 6             7             8             9            10 
      1  -0.100000D+01 -0.100000D+01 -0.100000D+01 -0.100000D+01 -0.100000D+01
      2  -0.210958D+00 -0.213768D+00 -0.214175D+00 -0.214216D+00 -0.214228D+00
      3  -0.163771D-01 -0.177291D-01 -0.179701D-01 -0.180029D-01 -0.180098D-01
      4  -0.129393D-02 -0.172606D-02 -0.181153D-02 -0.182509D-02 -0.183012D-02
      5  -0.627615D-04 -0.243221D-03 -0.279674D-03 -0.287951D-03 -0.290478D-03
      6   0.000000D+00 -0.261987D-04 -0.407756D-04 -0.439851D-04 -0.452885D-04
      7  -0.261987D-04  0.000000D+00 -0.123651D-05 -0.224197D-05 -0.269589D-05
      8  -0.407756D-04 -0.123651D-05  0.000000D+00 -0.130990D-06 -0.297405D-06
      9  -0.439851D-04 -0.224197D-05 -0.130990D-06  0.000000D+00 -0.309369D-07
     10  -0.452885D-04 -0.269589D-05 -0.297405D-06 -0.309369D-07  0.000000D+00
 NSaved= 9 IEnMin= 9 EnMin= -169.953056121192     IErMin= 9 ErrMin= 4.65D-06
 ErrMax= 4.65D-06  0.00D+00 EMaxC= 1.00D-01 BMatC= 1.34D-09 BMatP= 7.79D-09
 IDIUse=1 WtCom= 1.00D+00 WtEn= 0.00D+00
 Inv2:  IOpt= 1 Iter= 1 AM= 3.79D-07 Conv= 1.00D-12.
 Inv2:  IOpt= 1 Iter= 2 AM= 1.17D-21 Conv= 1.00D-12.
 Coeff-Com:  0.614D-04-0.104D-03-0.881D-03-0.165D-03 0.761D-02 0.846D-02
 Coeff-Com: -0.113D+00-0.124D+00 0.122D+01
 Coeff-En:   0.000D+00 0.000D+00 0.000D+00 0.000D+00 0.000D+00 0.000D+00
 Coeff-En:   0.000D+00 0.000D+00 0.000D+00
 Coeff:      0.614D-04-0.104D-03-0.881D-03-0.165D-03 0.761D-02 0.846D-02
 Coeff:     -0.113D+00-0.124D+00 0.122D+01
 NOrbs=   107 LenY=   104820192 NE2=      979627 LScr= 7
 RMSDP=1.72D-06 MaxDP=3.29D-05 DE=-5.87D-08 OVMax= 0.00D+00

 Cycle  10  Pass 1  IDiag  1:
 One-electron energy=-0.181488877833D+04
 RMSU=  5.07D-07    CP:  9.89D-01  1.16D+00  1.13D+00  1.31D+00  1.31D+00
                    CP:  1.31D+00  1.51D+00  1.65D+00  1.53D+00
 FoF2E:  PMaxA= 7.81D-06S
 Calling FoFJK with Acc= 0.00D+00 ICntrl=       0.
 FoF2E:  FMaxA= 1.51D-05S
 ChkPGP:  NMat=1 NMatS=1 NMatT=0
 EA= 0.402635778247E-09  0.00000000000      0.00000000000      0.00000000000    
 EB= 0.402635778247E-09  0.00000000000      0.00000000000      0.00000000000    
 ETotA= 0.402635778247E-09 ETotB= 0.402635778247E-09
 1/2 <PG(P)>=           0.000000000403
 IMat=  1 1/2 <PG(P)>=         861.015577543001
 IMat=  1 EOne=-0.181488877833D+04 ETwo= 0.861015577543D+03 Energy=-0.953873200791D+03
 1/2 <PG(P)>=         861.015577543001
 E= -169.953056132590     Delta-E=       -0.000000011398 Rises=F Damp=F
 DIIS: error= 1.98D-06 at cycle  10 NSaved=  10.
 B matrix at iteration         10
                 1             2             3             4             5 
      1   0.000000D+00 -0.100000D+01 -0.100000D+01 -0.100000D+01 -0.100000D+01
      2  -0.100000D+01 -0.286091D+00 -0.311314D-01 -0.211221D-01 -0.751908D-03
      3  -0.100000D+01 -0.311314D-01 -0.275086D-01  0.132925D-02 -0.104748D-02
      4  -0.100000D+01 -0.211221D-01  0.132925D-02 -0.316240D-02  0.219049D-04
      5  -0.100000D+01 -0.751908D-03 -0.104748D-02  0.219049D-04 -0.154742D-03
      6  -0.100000D+01 -0.430763D-03 -0.621439D-06 -0.160954D-03 -0.337734D-05
      7  -0.100000D+01 -0.128086D-03  0.313743D-04 -0.292045D-04 -0.396104D-05
      8  -0.100000D+01 -0.110119D-04  0.560764D-05 -0.316062D-05  0.525614D-06
      9  -0.100000D+01  0.329940D-05  0.440701D-06 -0.192258D-06  0.345412D-07
     10  -0.100000D+01 -0.726168D-06  0.390058D-06 -0.212046D-06  0.434603D-07
     11  -0.100000D+01 -0.364210D-06  0.785161D-07 -0.343263D-07  0.180511D-07
                 6             7             8             9            10 
      1  -0.100000D+01 -0.100000D+01 -0.100000D+01 -0.100000D+01 -0.100000D+01
      2  -0.430763D-03 -0.128086D-03 -0.110119D-04  0.329940D-05 -0.726168D-06
      3  -0.621439D-06  0.313743D-04  0.560764D-05  0.440701D-06  0.390058D-06
      4  -0.160954D-03 -0.292045D-04 -0.316062D-05 -0.192258D-06 -0.212046D-06
      5  -0.337734D-05 -0.396104D-05  0.525614D-06  0.345412D-07  0.434603D-07
      6  -0.200034D-04 -0.190894D-05 -0.629349D-06 -0.118288D-06 -0.281752D-07
      7  -0.190894D-05 -0.937845D-06 -0.679454D-07 -0.367459D-07 -0.481981D-08
      8  -0.629349D-06 -0.679454D-07 -0.806364D-07 -0.143207D-07 -0.638431D-08
      9  -0.118288D-06 -0.367459D-07 -0.143207D-07 -0.779093D-08 -0.206403D-08
     10  -0.281752D-07 -0.481981D-08 -0.638431D-08 -0.206403D-08 -0.134378D-08
     11   0.157294D-08 -0.790186D-10 -0.818706D-09 -0.780325D-09 -0.334484D-09
                11 
      1  -0.100000D+01
      2  -0.364210D-06
      3   0.785161D-07
      4  -0.343263D-07
      5   0.180511D-07
      6   0.157294D-08
      7  -0.790186D-10
      8  -0.818706D-09
      9  -0.780325D-09
     10  -0.334484D-09
     11  -0.208977D-09
 Tr matrix at iteration         10
                 1             2             3             4             5 
      1  -0.169953D+03  0.000000D+00  0.000000D+00  0.000000D+00  0.000000D+00
      2   0.000000D+00 -0.467113D+02 -0.470413D+02 -0.470160D+02 -0.470090D+02
      3   0.000000D+00 -0.457162D+02 -0.461253D+02 -0.461513D+02 -0.461480D+02
      4   0.000000D+00 -0.460152D+02 -0.464757D+02 -0.465022D+02 -0.465058D+02
      5   0.000000D+00 -0.459148D+02 -0.463787D+02 -0.464122D+02 -0.464158D+02
      6   0.000000D+00 -0.459269D+02 -0.463937D+02 -0.464275D+02 -0.464318D+02
      7   0.100000D+01 -0.459226D+02 -0.463902D+02 -0.464245D+02 -0.464288D+02
      8   0.000000D+00 -0.459221D+02 -0.463897D+02 -0.464240D+02 -0.464284D+02
      9   0.000000D+00 -0.459220D+02 -0.463896D+02 -0.464240D+02 -0.464284D+02
     10   0.000000D+00 -0.459220D+02 -0.463896D+02 -0.464240D+02 -0.464283D+02
     11   0.000000D+00 -0.459220D+02 -0.463896D+02 -0.464240D+02 -0.464284D+02
                 6             7             8             9            10 
      1   0.000000D+00  0.000000D+00  0.000000D+00  0.000000D+00  0.000000D+00
      2  -0.470055D+02 -0.470041D+02 -0.470039D+02 -0.470039D+02 -0.470039D+02
      3  -0.461472D+02 -0.461466D+02 -0.461465D+02 -0.461465D+02 -0.461465D+02
      4  -0.465054D+02 -0.465052D+02 -0.465052D+02 -0.465052D+02 -0.465052D+02
      5  -0.464160D+02 -0.464160D+02 -0.464160D+02 -0.464160D+02 -0.464160D+02
      6  -0.464320D+02 -0.464321D+02 -0.464320D+02 -0.464320D+02 -0.464320D+02
      7  -0.464292D+02 -0.464292D+02 -0.464292D+02 -0.464292D+02 -0.464292D+02
      8  -0.464288D+02 -0.464288D+02 -0.464288D+02 -0.464288D+02 -0.464288D+02
      9  -0.464288D+02 -0.464288D+02 -0.464288D+02 -0.464288D+02 -0.464288D+02
     10  -0.464287D+02 -0.464288D+02 -0.464288D+02 -0.464288D+02 -0.464288D+02
     11  -0.464288D+02 -0.464288D+02 -0.464288D+02 -0.464288D+02 -0.464288D+02
                11 
      1   0.000000D+00
      2  -0.470039D+02
      3  -0.461465D+02
      4  -0.465052D+02
      5  -0.464160D+02
      6  -0.464320D+02
      7  -0.464292D+02
      8  -0.464288D+02
      9  -0.464288D+02
     10  -0.464288D+02
     11  -0.464288D+02
 BE matrix at iteration         10
                 1             2             3             4             5 
      1   0.000000D+00 -0.100000D+01 -0.100000D+01 -0.100000D+01 -0.100000D+01
      2  -0.100000D+01  0.000000D+00 -0.790883D-01 -0.182288D+00 -0.203306D+00
      3  -0.100000D+01 -0.790883D-01  0.000000D+00 -0.496359D-03 -0.143880D-01
      4  -0.100000D+01 -0.182288D+00 -0.496359D-03  0.000000D+00 -0.238556D-05
      5  -0.100000D+01 -0.203306D+00 -0.143880D-01 -0.238556D-05  0.000000D+00
      6  -0.100000D+01 -0.210958D+00 -0.163771D-01 -0.129393D-02 -0.627615D-04
      7  -0.100000D+01 -0.213768D+00 -0.177291D-01 -0.172606D-02 -0.243221D-03
      8  -0.100000D+01 -0.214175D+00 -0.179701D-01 -0.181153D-02 -0.279674D-03
      9  -0.100000D+01 -0.214216D+00 -0.180029D-01 -0.182509D-02 -0.287951D-03
     10  -0.100000D+01 -0.214228D+00 -0.180098D-01 -0.183012D-02 -0.290478D-03
     11  -0.100000D+01 -0.214231D+00 -0.180117D-01 -0.183122D-02 -0.291199D-03
                 6             7             8             9            10 
      1  -0.100000D+01 -0.100000D+01 -0.100000D+01 -0.100000D+01 -0.100000D+01
      2  -0.210958D+00 -0.213768D+00 -0.214175D+00 -0.214216D+00 -0.214228D+00
      3  -0.163771D-01 -0.177291D-01 -0.179701D-01 -0.180029D-01 -0.180098D-01
      4  -0.129393D-02 -0.172606D-02 -0.181153D-02 -0.182509D-02 -0.183012D-02
      5  -0.627615D-04 -0.243221D-03 -0.279674D-03 -0.287951D-03 -0.290478D-03
      6   0.000000D+00 -0.261987D-04 -0.407756D-04 -0.439851D-04 -0.452885D-04
      7  -0.261987D-04  0.000000D+00 -0.123651D-05 -0.224197D-05 -0.269589D-05
      8  -0.407756D-04 -0.123651D-05  0.000000D+00 -0.130990D-06 -0.297405D-06
      9  -0.439851D-04 -0.224197D-05 -0.130990D-06  0.000000D+00 -0.309369D-07
     10  -0.452885D-04 -0.269589D-05 -0.297405D-06 -0.309369D-07  0.000000D+00
     11  -0.456856D-04 -0.288711D-05 -0.385086D-06 -0.685440D-07 -0.745604D-08
                11 
      1  -0.100000D+01
      2  -0.214231D+00
      3  -0.180117D-01
      4  -0.183122D-02
      5  -0.291199D-03
      6  -0.456856D-04
      7  -0.288711D-05
      8  -0.385086D-06
      9  -0.685440D-07
     10  -0.745604D-08
     11   0.000000D+00
 NSaved=10 IEnMin=10 EnMin= -169.953056132590     IErMin=10 ErrMin= 1.98D-06
 ErrMax= 1.98D-06  0.00D+00 EMaxC= 1.00D-01 BMatC= 2.09D-10 BMatP= 1.34D-09
 IDIUse=1 WtCom= 1.00D+00 WtEn= 0.00D+00
 Inv2:  IOpt= 1 Iter= 1 AM= 1.25D-06 Conv= 1.00D-12.
 Inv2:  IOpt= 1 Iter= 2 AM= 1.78D-21 Conv= 1.00D-12.
 Coeff-Com:  0.728D-05 0.970D-05-0.270D-03-0.392D-03 0.192D-02 0.128D-01
 Coeff-Com:  0.737D-02-0.198D+00-0.161D-01 0.119D+01
 Coeff-En:   0.000D+00 0.000D+00 0.000D+00 0.000D+00 0.000D+00 0.000D+00
 Coeff-En:   0.000D+00 0.000D+00 0.000D+00 0.000D+00
 Coeff:      0.728D-05 0.970D-05-0.270D-03-0.392D-03 0.192D-02 0.128D-01
 Coeff:      0.737D-02-0.198D+00-0.161D-01 0.119D+01
 NOrbs=   107 LenY=   104820192 NE2=      979627 LScr= 7
 RMSDP=8.03D-07 MaxDP=1.74D-05 DE=-1.14D-08 OVMax= 0.00D+00

 Cycle  11  Pass 1  IDiag  1:
 One-electron energy=-0.181488880838D+04
 RMSU=  1.69D-07    CP:  9.89D-01  1.16D+00  1.13D+00  1.31D+00  1.31D+00
                    CP:  1.31D+00  1.54D+00  1.76D+00  1.90D+00  1.43D+00
 FoF2E:  PMaxA= 2.11D-06S
 Calling FoFJK with Acc= 0.00D+00 ICntrl=       0.
 FoF2E:  FMaxA= 2.49D-06S
 ChkPGP:  NMat=1 NMatS=1 NMatT=0
 EA=-0.999080324863E-11  0.00000000000      0.00000000000      0.00000000000    
 EB=-0.999080324863E-11  0.00000000000      0.00000000000      0.00000000000    
 ETotA=-0.999080324863E-11 ETotB=-0.999080324863E-11
 1/2 <PG(P)>=          -0.000000000010
 IMat=  1 1/2 <PG(P)>=         861.015607586511
 IMat=  1 EOne=-0.181488880838D+04 ETwo= 0.861015607587D+03 Energy=-0.953873200793D+03
 1/2 <PG(P)>=         861.015607586511
 E= -169.953056134544     Delta-E=       -0.000000001954 Rises=F Damp=F
 DIIS: error= 7.15D-07 at cycle  11 NSaved=  11.
 B matrix at iteration         11
                 1             2             3             4             5 
      1   0.000000D+00 -0.100000D+01 -0.100000D+01 -0.100000D+01 -0.100000D+01
      2  -0.100000D+01 -0.286091D+00 -0.311314D-01 -0.211221D-01 -0.751908D-03
      3  -0.100000D+01 -0.311314D-01 -0.275086D-01  0.132925D-02 -0.104748D-02
      4  -0.100000D+01 -0.211221D-01  0.132925D-02 -0.316240D-02  0.219049D-04
      5  -0.100000D+01 -0.751908D-03 -0.104748D-02  0.219049D-04 -0.154742D-03
      6  -0.100000D+01 -0.430763D-03 -0.621439D-06 -0.160954D-03 -0.337734D-05
      7  -0.100000D+01 -0.128086D-03  0.313743D-04 -0.292045D-04 -0.396104D-05
      8  -0.100000D+01 -0.110119D-04  0.560764D-05 -0.316062D-05  0.525614D-06
      9  -0.100000D+01  0.329940D-05  0.440701D-06 -0.192258D-06  0.345412D-07
     10  -0.100000D+01 -0.726168D-06  0.390058D-06 -0.212046D-06  0.434603D-07
     11  -0.100000D+01 -0.364210D-06  0.785161D-07 -0.343263D-07  0.180511D-07
     12  -0.100000D+01  0.999275D-07 -0.931383D-07  0.309878D-07 -0.105848D-07
                 6             7             8             9            10 
      1  -0.100000D+01 -0.100000D+01 -0.100000D+01 -0.100000D+01 -0.100000D+01
      2  -0.430763D-03 -0.128086D-03 -0.110119D-04  0.329940D-05 -0.726168D-06
      3  -0.621439D-06  0.313743D-04  0.560764D-05  0.440701D-06  0.390058D-06
      4  -0.160954D-03 -0.292045D-04 -0.316062D-05 -0.192258D-06 -0.212046D-06
      5  -0.337734D-05 -0.396104D-05  0.525614D-06  0.345412D-07  0.434603D-07
      6  -0.200034D-04 -0.190894D-05 -0.629349D-06 -0.118288D-06 -0.281752D-07
      7  -0.190894D-05 -0.937845D-06 -0.679454D-07 -0.367459D-07 -0.481981D-08
      8  -0.629349D-06 -0.679454D-07 -0.806364D-07 -0.143207D-07 -0.638431D-08
      9  -0.118288D-06 -0.367459D-07 -0.143207D-07 -0.779093D-08 -0.206403D-08
     10  -0.281752D-07 -0.481981D-08 -0.638431D-08 -0.206403D-08 -0.134378D-08
     11   0.157294D-08 -0.790186D-10 -0.818706D-09 -0.780325D-09 -0.334484D-09
     12   0.184049D-08 -0.129174D-09  0.185840D-10 -0.865438D-10 -0.847582D-10
                11            12 
      1  -0.100000D+01 -0.100000D+01
      2  -0.364210D-06  0.999275D-07
      3   0.785161D-07 -0.931383D-07
      4  -0.343263D-07  0.309878D-07
      5   0.180511D-07 -0.105848D-07
      6   0.157294D-08  0.184049D-08
      7  -0.790186D-10 -0.129174D-09
      8  -0.818706D-09  0.185840D-10
      9  -0.780325D-09 -0.865438D-10
     10  -0.334484D-09 -0.847582D-10
     11  -0.208977D-09 -0.366456D-10
     12  -0.366456D-10 -0.203618D-10
 Tr matrix at iteration         11
                 1             2             3             4             5 
      1  -0.169953D+03  0.000000D+00  0.000000D+00  0.000000D+00  0.000000D+00
      2   0.000000D+00 -0.467113D+02 -0.470413D+02 -0.470160D+02 -0.470090D+02
      3   0.000000D+00 -0.457162D+02 -0.461253D+02 -0.461513D+02 -0.461480D+02
      4   0.000000D+00 -0.460152D+02 -0.464757D+02 -0.465022D+02 -0.465058D+02
      5   0.000000D+00 -0.459148D+02 -0.463787D+02 -0.464122D+02 -0.464158D+02
      6   0.000000D+00 -0.459269D+02 -0.463937D+02 -0.464275D+02 -0.464318D+02
      7   0.100000D+01 -0.459226D+02 -0.463902D+02 -0.464245D+02 -0.464288D+02
      8   0.000000D+00 -0.459221D+02 -0.463897D+02 -0.464240D+02 -0.464284D+02
      9   0.000000D+00 -0.459220D+02 -0.463896D+02 -0.464240D+02 -0.464284D+02
     10   0.000000D+00 -0.459220D+02 -0.463896D+02 -0.464240D+02 -0.464283D+02
     11   0.000000D+00 -0.459220D+02 -0.463896D+02 -0.464240D+02 -0.464284D+02
     12   0.000000D+00 -0.459220D+02 -0.463896D+02 -0.464240D+02 -0.464284D+02
                 6             7             8             9            10 
      1   0.000000D+00  0.000000D+00  0.000000D+00  0.000000D+00  0.000000D+00
      2  -0.470055D+02 -0.470041D+02 -0.470039D+02 -0.470039D+02 -0.470039D+02
      3  -0.461472D+02 -0.461466D+02 -0.461465D+02 -0.461465D+02 -0.461465D+02
      4  -0.465054D+02 -0.465052D+02 -0.465052D+02 -0.465052D+02 -0.465052D+02
      5  -0.464160D+02 -0.464160D+02 -0.464160D+02 -0.464160D+02 -0.464160D+02
      6  -0.464320D+02 -0.464321D+02 -0.464320D+02 -0.464320D+02 -0.464320D+02
      7  -0.464292D+02 -0.464292D+02 -0.464292D+02 -0.464292D+02 -0.464292D+02
      8  -0.464288D+02 -0.464288D+02 -0.464288D+02 -0.464288D+02 -0.464288D+02
      9  -0.464288D+02 -0.464288D+02 -0.464288D+02 -0.464288D+02 -0.464288D+02
     10  -0.464287D+02 -0.464288D+02 -0.464288D+02 -0.464288D+02 -0.464288D+02
     11  -0.464288D+02 -0.464288D+02 -0.464288D+02 -0.464288D+02 -0.464288D+02
     12  -0.464287D+02 -0.464288D+02 -0.464288D+02 -0.464288D+02 -0.464288D+02
                11            12 
      1   0.000000D+00  0.000000D+00
      2  -0.470039D+02 -0.470039D+02
      3  -0.461465D+02 -0.461465D+02
      4  -0.465052D+02 -0.465052D+02
      5  -0.464160D+02 -0.464160D+02
      6  -0.464320D+02 -0.464320D+02
      7  -0.464292D+02 -0.464292D+02
      8  -0.464288D+02 -0.464288D+02
      9  -0.464288D+02 -0.464288D+02
     10  -0.464288D+02 -0.464288D+02
     11  -0.464288D+02 -0.464288D+02
     12  -0.464288D+02 -0.464288D+02
 BE matrix at iteration         11
                 1             2             3             4             5 
      1   0.000000D+00 -0.100000D+01 -0.100000D+01 -0.100000D+01 -0.100000D+01
      2  -0.100000D+01  0.000000D+00 -0.790883D-01 -0.182288D+00 -0.203306D+00
      3  -0.100000D+01 -0.790883D-01  0.000000D+00 -0.496359D-03 -0.143880D-01
      4  -0.100000D+01 -0.182288D+00 -0.496359D-03  0.000000D+00 -0.238556D-05
      5  -0.100000D+01 -0.203306D+00 -0.143880D-01 -0.238556D-05  0.000000D+00
      6  -0.100000D+01 -0.210958D+00 -0.163771D-01 -0.129393D-02 -0.627615D-04
      7  -0.100000D+01 -0.213768D+00 -0.177291D-01 -0.172606D-02 -0.243221D-03
[...]
    33  H    0.000000   0.000000   0.000000   0.000000   0.000000   0.000000
    34  H    0.000000   0.000000   0.000000   0.000000   0.000000   0.000000
    35  H    0.000000   0.000000   0.000000   0.000000   0.000000   0.000000
    36  H    0.000000   0.000000   0.000000   0.000000   0.000000   0.000000
    37  H    0.000000   0.000000   0.000000   0.000000   0.000000   0.000000
    38  H    0.000000   0.000000   0.000000   0.000000   0.000000   0.000000
    39  H    0.000000   0.000000   0.000000   0.000000   0.000000   0.000000
    40  H    0.000000   0.000000   0.000000   0.000000   0.000000   0.000000
    41  H    0.000000   0.000000   0.000000   0.000000   0.000000   0.000000
              25         26         27         28         29         30
     1  C    0.000000   0.000000   0.000000   0.000000   0.000000   0.000000
     2  C    0.000000   0.000000   0.000000   0.000000   0.000000   0.000000
     3  C    0.000000   0.000000   0.000000   0.000000   0.000000   0.000000
     4  C    0.000000   0.000000   0.000000   0.000000   0.000000   0.000000
     5  C    0.000000   0.000000   0.000000   0.000000   0.000000   0.000000
     6  C    0.000000   0.000000   0.000000   0.000000   0.000000   0.000000
     7  O    0.000000   0.000000   0.000000   0.000000   0.000000   0.000000
     8  N    0.000000   0.000000   0.000000   0.000000   0.000000   0.000000
     9  S    0.000000   0.000000   0.000000   0.000000   0.000000   0.000000
    10  C    0.000000   0.000000   0.000000   0.000000   0.000000   0.000000
    11  N    0.000000   0.000000   0.000000   0.000000   0.000000   0.000000
    12  C    0.000000   0.000000   0.000000   0.000000   0.000000   0.000000
    13  C    0.000000   0.000000   0.000000   0.000000   0.000000   0.000000
    14  C    0.000000   0.000000   0.000000   0.000000   0.000000   0.000000
    15  C    0.000000   0.000000   0.000000   0.000000   0.000000   0.000000
    16  C    0.000000   0.000000   0.000000   0.000000   0.000000   0.000000
    17  C    0.000000   0.000000   0.000000   0.000000   0.000000   0.000000
    18  N    0.000000   0.000000   0.000000   0.000000   0.000000   0.000000
    19  C    0.000000   0.000000   0.000000   0.000000   0.000000   0.000000
    20  O    0.000000   0.000000   0.000000   0.000000   0.000000   0.000000
    21  O    0.000000   0.000000   0.000000   0.000000   0.000000   0.000000
    22  C    0.000000   0.000000   0.000000   0.000000   0.000000   0.000000
    23  H    0.000000   0.000000   0.000000   0.000000   0.000000   0.000000
    24  H    0.000000   0.000000   0.000000   0.000000   0.000000   0.000000
    25  H    0.980508   0.000000   0.000000   0.000000   0.000000   0.000000
    26  H    0.000000   0.981123   0.000000   0.000000   0.000000   0.000000
    27  H    0.000000   0.000000   0.985086   0.000000   0.000000   0.000000
    28  H    0.000000   0.000000   0.000000   0.976560   0.000000   0.000000
    29  H    0.000000   0.000000   0.000000   0.000000   0.979877   0.000000
    30  H    0.000000   0.000000   0.000000   0.000000   0.000000   0.972599
    31  H    0.000000   0.000000   0.000000   0.000000   0.000000   0.000000
    32  H    0.000000   0.000000   0.000000   0.000000   0.000000   0.000000
    33  H    0.000000   0.000000   0.000000   0.000000   0.000000   0.000000
    34  H    0.000000   0.000000   0.000000   0.000000   0.000000   0.000000
    35  H    0.000000   0.000000   0.000000   0.000000   0.000000   0.000000
    36  H    0.000000   0.000000   0.000000   0.000000   0.000000   0.000000
    37  H    0.000000   0.000000   0.000000   0.000000   0.000000   0.000000
    38  H    0.000000   0.000000   0.000000   0.000000   0.000000   0.000000
    39  H    0.000000   0.000000   0.000000   0.000000   0.000000   0.000000
    40  H    0.000000   0.000000   0.000000   0.000000   0.000000   0.000000
    41  H    0.000000   0.000000   0.000000   0.000000   0.000000   0.000000
              31         32         33         34         35         36
     1  C    0.000000   0.000000   0.000000   0.000000   0.000000   0.000000
     2  C    0.000000   0.000000   0.000000   0.000000   0.000000   0.000000
     3  C    0.000000   0.000000   0.000000   0.000000   0.000000   0.000000
     4  C    0.000000   0.000000   0.000000   0.000000   0.000000   0.000000
     5  C    0.000000   0.000000   0.000000   0.000000   0.000000   0.000000
     6  C    0.000000   0.000000   0.000000   0.000000   0.000000   0.000000
     7  O    0.000000   0.000000   0.000000   0.000000   0.000000   0.000000
     8  N    0.000000   0.000000   0.000000   0.000000   0.000000   0.000000
     9  S    0.000000   0.000000   0.000000   0.000000   0.000000   0.000000
    10  C    0.000000   0.000000   0.000000   0.000000   0.000000   0.000000
    11  N    0.000000   0.000000   0.000000   0.000000   0.000000   0.000000
    12  C    0.000000   0.000000   0.000000   0.000000   0.000000   0.000000
    13  C    0.000000   0.000000   0.000000   0.000000   0.000000   0.000000
    14  C    0.000000   0.000000   0.000000   0.000000   0.000000   0.000000
    15  C    0.000000   0.000000   0.000000   0.000000   0.000000   0.000000
    16  C    0.000000   0.000000   0.000000   0.000000   0.000000   0.000000
    17  C    0.000000   0.000000   0.000000   0.000000   0.000000   0.000000
    18  N    0.000000   0.000000   0.000000   0.000000   0.000000   0.000000
    19  C    0.000000   0.000000   0.000000   0.000000   0.000000   0.000000
    20  O    0.000000   0.000000   0.000000   0.000000   0.000000   0.000000
    21  O    0.000000   0.000000   0.000000   0.000000   0.000000   0.000000
    22  C    0.000000   0.000000   0.000000   0.000000   0.000000   0.000000
    23  H    0.000000   0.000000   0.000000   0.000000   0.000000   0.000000
    24  H    0.000000   0.000000   0.000000   0.000000   0.000000   0.000000
    25  H    0.000000   0.000000   0.000000   0.000000   0.000000   0.000000
    26  H    0.000000   0.000000   0.000000   0.000000   0.000000   0.000000
    27  H    0.000000   0.000000   0.000000   0.000000   0.000000   0.000000
    28  H    0.000000   0.000000   0.000000   0.000000   0.000000   0.000000
    29  H    0.000000   0.000000   0.000000   0.000000   0.000000   0.000000
    30  H    0.000000   0.000000   0.000000   0.000000   0.000000   0.000000
    31  H    0.974912   0.000000   0.000000   0.000000   0.000000   0.000000
    32  H    0.000000   0.966062   0.000000   0.000000   0.000000   0.000000
    33  H    0.000000   0.000000   0.967317   0.000000   0.000000   0.000000
    34  H    0.000000   0.000000   0.000000   0.951323   0.000000   0.000000
    35  H    0.000000   0.000000   0.000000   0.000000   0.966929   0.000000
    36  H    0.000000   0.000000   0.000000   0.000000   0.000000   0.969747
    37  H    0.000000   0.000000   0.000000   0.000000   0.000000   0.000000
    38  H    0.000000   0.000000   0.000000   0.000000   0.000000   0.000000
    39  H    0.000000   0.000000   0.000000   0.000000   0.000000   0.000000
    40  H    0.000000   0.000000   0.000000   0.000000   0.000000   0.000000
    41  H    0.000000   0.000000   0.000000   0.000000   0.000000   0.000000
              37         38         39         40         41
     1  C    0.000000   0.000000   0.000000   0.000000   0.000000
     2  C    0.000000   0.000000   0.000000   0.000000   0.000000
     3  C    0.000000   0.000000   0.000000   0.000000   0.000000
     4  C    0.000000   0.000000   0.000000   0.000000   0.000000
     5  C    0.000000   0.000000   0.000000   0.000000   0.000000
     6  C    0.000000   0.000000   0.000000   0.000000   0.000000
     7  O    0.000000   0.000000   0.000000   0.000000   0.000000
     8  N    0.000000   0.000000   0.000000   0.000000   0.000000
     9  S    0.000000   0.000000   0.000000   0.000000   0.000000
    10  C    0.000000   0.000000   0.000000   0.000000   0.000000
    11  N    0.000000   0.000000   0.000000   0.000000   0.000000
    12  C    0.000000   0.000000   0.000000   0.000000   0.000000
    13  C    0.000000   0.000000   0.000000   0.000000   0.000000
    14  C    0.000000   0.000000   0.000000   0.000000   0.000000
    15  C    0.000000   0.000000   0.000000   0.000000   0.000000
    16  C    0.000000   0.000000   0.000000   0.000000   0.000000
    17  C    0.000000   0.000000   0.000000   0.000000   0.000000
    18  N    0.000000   0.000000   0.000000   0.000000   0.000000
    19  C    0.000000   0.000000   0.000000   0.000000   0.000000
    20  O    0.000000   0.000000   0.000000   0.000000   0.000000
    21  O    0.000000   0.000000   0.000000   0.000000   0.000000
    22  C    0.000000   0.000000   0.000000   0.000000   0.000000
    23  H    0.000000   0.000000   0.000000   0.000000   0.000000
    24  H    0.000000   0.000000   0.000000   0.000000   0.000000
    25  H    0.000000   0.000000   0.000000   0.000000   0.000000
    26  H    0.000000   0.000000   0.000000   0.000000   0.000000
    27  H    0.000000   0.000000   0.000000   0.000000   0.000000
    28  H    0.000000   0.000000   0.000000   0.000000   0.000000
    29  H    0.000000   0.000000   0.000000   0.000000   0.000000
    30  H    0.000000   0.000000   0.000000   0.000000   0.000000
    31  H    0.000000   0.000000   0.000000   0.000000   0.000000
    32  H    0.000000   0.000000   0.000000   0.000000   0.000000
    33  H    0.000000   0.000000   0.000000   0.000000   0.000000
    34  H    0.000000   0.000000   0.000000   0.000000   0.000000
    35  H    0.000000   0.000000   0.000000   0.000000   0.000000
    36  H    0.000000   0.000000   0.000000   0.000000   0.000000
    37  H    0.964096   0.000000   0.000000   0.000000   0.000000
    38  H    0.000000   0.813954   0.000000   0.000000   0.000000
    39  H    0.000000   0.000000   0.969659   0.000000   0.000000
    40  H    0.000000   0.000000   0.000000   0.950795   0.000000
    41  H    0.000000   0.000000   0.000000   0.000000   0.954336
 Mulliken charges:
               1
     1  C   -0.058244
     2  C   -0.028972
     3  C   -0.030679
     4  C   -0.020066
     5  C    0.005054
     6  C    0.433984
     7  O   -0.535725
     8  N   -0.194549
     9  S    0.100440
    10  C    0.299465
    11  N   -0.392321
    12  C    0.082860
    13  C    0.102314
    14  C   -0.025863
    15  C   -0.035893
    16  C   -0.040729
    17  C   -0.035331
    18  N   -0.178923
    19  C    0.562247
    20  O   -0.526852
    21  O   -0.267559
    22  C    0.079874
    23  H    0.011917
    24  H    0.018438
    25  H    0.019492
    26  H    0.018877
    27  H    0.014914
    28  H    0.023440
    29  H    0.020123
    30  H    0.027401
    31  H    0.025088
    32  H    0.033938
    33  H    0.032683
    34  H    0.048677
    35  H    0.033071
    36  H    0.030253
    37  H    0.035904
    38  H    0.186046
    39  H    0.030341
    40  H    0.049205
    41  H    0.045664
 Sum of Mulliken charges =  -0.00000
 Mulliken charges with hydrogens summed into heavy atoms:
               1
     1  C   -0.008398
     2  C    0.004818
     3  C    0.012884
     4  C    0.032423
     5  C    0.071675
     6  C    0.433984
     7  O   -0.535725
     8  N   -0.194549
     9  S    0.100440
    10  C    0.299465
    11  N   -0.392321
    12  C    0.082860
    13  C    0.102314
    14  C    0.022814
    15  C   -0.002822
    16  C   -0.010476
    17  C    0.000573
    18  N    0.007123
    19  C    0.562247
    20  O   -0.526852
    21  O   -0.267559
    22  C    0.205084
 Charge=             -0.0000 electrons
 Dipole moment (field-independent basis, Debye):
    X=              3.0269    Y=              4.4739    Z=             -1.5916  Tot=              5.6313
 N-N= 7.839201446582D+02 E-N= 0.000000000000D+00  KE=-1.814888808807D+03
 Orbital energies and kinetic energies (alpha):
                                 1                 2
   1         O                -1.787484        -16.841801
   2         O                -1.735386        -17.090132
   3         O                -1.619909        -16.728259
   4         O                -1.577623        -16.273207
   5         O                -1.534792        -15.794143
   6         O                -1.500816        -16.497943
   7         O                -1.447540        -16.802506
   8         O                -1.370746        -16.667427
   9         O                -1.366429        -15.691710
  10         O                -1.196765        -15.433298
  11         O                -1.180753        -15.459924
  12         O                -1.124572        -15.091611
  13         O                -1.099261        -14.933593
  14         O                -1.010569        -16.596937
  15         O                -0.982272        -15.461027
  16         O                -0.958016        -15.295437
  17         O                -0.942235        -15.056403
  18         O                -0.924161        -15.262914
  19         O                -0.885711        -15.147262
  20         O                -0.851489        -15.695369
  21         O                -0.831683        -15.699483
  22         O                -0.775412        -15.035724
  23         O                -0.763010        -15.318355
  24         O                -0.752964        -15.166123
  25         O                -0.707506        -15.604504
  26         O                -0.703197        -15.043535
  27         O                -0.693255        -15.241703
  28         O                -0.675492        -14.833817
  29         O                -0.668925        -14.962907
  30         O                -0.650183        -14.979156
  31         O                -0.634595        -14.930254
  32         O                -0.625315        -14.823746
  33         O                -0.607812        -14.980697
  34         O                -0.589457        -15.575119
  35         O                -0.583512        -15.045837
  36         O                -0.574223        -15.164367
  37         O                -0.570132        -15.066425
  38         O                -0.555073        -14.950323
  39         O                -0.547478        -14.769679
  40         O                -0.537325        -14.787359
  41         O                -0.525262        -15.187368
  42         O                -0.521918        -14.882305
  43         O                -0.507986        -14.695592
  44         O                -0.497564        -14.752319
  45         O                -0.483963        -14.544160
  46         O                -0.474884        -14.503140
  47         O                -0.472094        -14.408867
  48         O                -0.470205        -14.577151
  49         O                -0.468446        -14.847968
  50         O                -0.452870        -14.913823
  51         O                -0.444852        -15.460136
  52         O                -0.431854        -15.846998
  53         O                -0.407980        -15.765277
  54         O                -0.394614        -15.958169
  55         O                -0.388450        -16.131008
  56         O                -0.369370        -15.452275
  57         O                -0.359334        -15.871342
  58         O                -0.316793        -14.616227
  59         O                -0.297281        -15.230263
  60         V                -0.011913        -15.829078
  61         V                 0.016158        -15.656803
  62         V                 0.030821        -14.399913
  63         V                 0.033330        -15.635058
  64         V                 0.049172        -15.095214
  65         V                 0.058200        -15.857474
  66         V                 0.074728        -15.631937
  67         V                 0.104606        -14.669847
  68         V                 0.110102        -15.192345
  69         V                 0.115008        -14.390513
  70         V                 0.117911        -14.340393
  71         V                 0.125368        -13.905749
  72         V                 0.128805        -13.447743
  73         V                 0.141347        -14.107314
  74         V                 0.144551        -13.930395
  75         V                 0.149914        -13.894350
  76         V                 0.160400        -13.915223
  77         V                 0.179987        -14.013744
  78         V                 0.188492        -15.042688
  79         V                 0.202579        -14.320182
  80         V                 0.206288        -13.031858
  81         V                 0.220163        -13.597573
  82         V                 0.233975        -14.372255
  83         V                 0.234317        -12.652267
  84         V                 0.236923        -12.498423
  85         V                 0.240694        -14.589866
  86         V                 0.243574        -14.046156
  87         V                 0.246732        -13.878796
  88         V                 0.248635        -14.931982
  89         V                 0.251988        -12.596703
  90         V                 0.253841        -12.830421
  91         V                 0.274448        -14.106464
  92         V                 0.298570        -14.709306
  93         V                 0.303537        -14.055270
  94         V                 0.311460        -14.947549
  95         V                 0.316378        -14.271766
  96         V                 0.321222        -13.353023
  97         V                 0.335508        -14.507544
  98         V                 0.353204        -14.643136
  99         V                 0.374543        -14.172212
 100         V                 0.397506        -14.546261
 101         V                 0.408103        -14.316083
 102         V                 0.430486        -14.623332
 103         V                 0.456847        -14.611703
 104         V                 0.465421        -15.045479
 105         V                 0.470769        -14.490365
 106         V                 0.485205        -15.115336
 107         V                 0.528548        -15.187551
 Total kinetic energy from orbitals=-1.814888808807D+03

 Test job not archived.
 1\1\GINC-NODE043\SP\RZINDO CIS\STO-3G\C15H19N3O3S1\SGOOMAR1\12-Aug-202
 5\0\\#n ZINDO sp IOP(5/33=2) PUNCH=(MO,Coord) pop=full nosymm\\title\\
 0,1\C,0,8.75163,4.65782,-0.66103\C,0,7.63221,3.94343,0.09557\C,0,7.930
 36,2.44287,0.2256\C,0,6.86104,1.76399,1.0916\C,0,7.196,0.28509,1.34862
 \C,0,6.78224,-0.05385,2.75421\O,0,5.69769,-0.50462,3.02816\N,0,7.69454
 ,0.15484,3.8284\S,0,9.33268,0.73304,3.56719\C,0,9.04561,2.42959,4.1298
 4\N,0,8.18818,2.72145,5.05724\C,0,7.43284,1.7224,5.69434\C,0,7.15679,0
 .45981,5.10878\C,0,6.3429,-0.45759,5.77766\C,0,5.815,-0.12853,7.02246\
 C,0,6.09323,1.10725,7.60782\C,0,6.89757,2.03179,6.95231\N,0,9.74785,3.
 49963,3.57081\C,0,10.68619,3.35036,2.55532\O,0,11.10398,2.31998,2.0924
 \O,0,11.05009,4.60416,2.14875\C,0,12.11354,4.60871,1.19381\H,0,8.52916
 ,5.7233,-0.78641\H,0,8.89855,4.23094,-1.65844\H,0,9.70295,4.58357,-0.1
 2284\H,0,6.66453,4.09838,-0.41773\H,0,7.51838,4.39461,1.09996\H,0,8.93
 272,2.30091,0.67202\H,0,7.97846,1.97155,-0.7724\H,0,5.86841,1.84403,0.
 60782\H,0,6.75765,2.3153,2.04575\H,0,8.25838,0.05936,1.13829\H,0,6.628
 6,-0.36085,0.64144\H,0,6.11779,-1.4213,5.31511\H,0,5.17295,-0.84197,7.
 53915\H,0,5.67369,1.35133,8.58286\H,0,7.11758,3.00384,7.39629\H,0,9.52
 487,4.44122,3.90726\H,0,12.24124,5.67964,0.99256\H,0,11.82544,4.0581,0
 .29111\H,0,13.01633,4.17049,1.63303\\Version=ES64L-G16RevA.03\HF=-169.
 9530561\RMSD=8.403e-09\PG=C01 [X(C15H19N3O3S1)]\\@


 TERRY FORSTER, PORTLY ATLANTA BRAVES RELIEVER,
 ANNOUNCING THAT HE WAS GOING TO A FAT FARM:
 "A WAIST IS A TERRIBLE THING TO MIND."
 Job cpu time:       0 days  0 hours  0 minutes  2.3 seconds.
 Elapsed time:       0 days  0 hours  0 minutes  0.7 seconds.
 File lengths (MBytes):  RWF=    143 Int=      0 D2E=      0 Chk=      4 Scr=      1
 Normal termination of Gaussian 16 at Tue Aug 12 15:58:50 2025.
